# vtk DataFile Version 5.1
vtk output
ASCII
DATASET STRUCTURED_POINTS
DIMENSIONS 250 250 1
SPACING 1 1 1
ORIGIN 0 0 0
POINT_DATA 62500
FIELD FieldData 6
feature_1 1 62500 float
0 0 0 0 0 0 0 0 0 
0 0 4.43477e-15 0 0 0 0 0 0 
0 0 0 0 0 0 0 0 0 
0 0 0 0 0 0 0 0 0 
0 0 0 0 0 0 0 0 0 
0 0 0 0 0 0 0 0 0 
0 0 0 0 0 0 0 0 0 
0 0 0 0 0 0 0 0 0 
0 0 0 0 0 0 0 0 0 
0 0 0 0 0 0 0 0 0 
0 0 0 0 0 0 0 0 0 
0 0 0 0 6.63675e-14 0 0 6.37942e-14 0 
0 0 0 0 0 0 0 0 0 
0 0 0 0 0 0 0 0 0 
0 0 0 0 0 0 0 0 0 
0 0 0 0 0 0 0 0 0 
0 1.76079e-14 0 0 0 0 0 0 0 
0 7.62084e-15 0 0 0 0 0 0 0 
0 0 0 0 0 0 0 0 0 
0 0 0 0 0 0 0 0 0 
0 0 0 0 0 0 0 0 0 
0 0 0 0 0 0 0 0 0 
0 0 0 0 0 0 0 0 0 
0 0 0 0 0 0 0 0 0 
0 0 0 0 0 0 0 0 0 
0 0 0 0 0 0 0 0 0 
0 0 0 0 0 0 0 0 0 
0 0 0 0 0 0 0 0 0 
0 0 0 0 0 0 0 0 0 
0 0 0 0 0 0 0 0 0 
0 0 0 0 0 0 0 0 0 
0 0 0 0 0 0 0 0 0 
0 0 0 0 0 0 0 0 0 
0 0 0 0 0 0 0 0 0 
0 0 0 0 0 0 0 0 0 
7.06847e-14 0 0 0 0 0 0 0 0 
0 0 0 0 0 0 0 0 0 
0 0 0 0 0 0 0 0 0 
0 0 0 0 0 0 0 0 0 
0 0 0 0 0 0 0 0 0 
0 0 0 0 0 0 0 0 0 
0 0 0 0 0 0 0 0 0 
0 0 0 0 0 0 0 0 0 
0 0 0 0 0 0 0 0 0 
0 0 0 0 0 0 0 0 0 
0 0 0 0 0 0 0 0 0 
0 0 0 0 0 0 0 0 0 
0 0 0 0 0 0 0 0 0 
0 0 0 0 0 0 0 0 0 
0 0 0 0 0 0 0 0 0 
0 0 0 0 5.24017e-14 0 0 0 0 
0 0 0 0 0 0 0 0 0 
0 0 0 0 0 0 0 0 0 
0 0 0 0 0 0 0 0 0 
0 0 0 0 0 3.34617e-14 0 0 0 
0 0 0 0 0 0 0 0 0 
0 0 0 0 0 0 0 4.98107e-14 0 
0 0 0 0 0 0 0 0 0 
0 0 0 4.42161e-14 0 0 0 0 0 
0 0 0 0 0 0 0 0 0 
0 0 0 0 0 0 0 0 0 
0 0 0 0 0 0 0 0 0 
0 0 0 0 0 0 0 0 0 
0 0 0 0 0 0 0 0 0 
0 0 0 0 0 0 0 0 0 
0 0 0 0 0 7.06502e-15 0 0 0 
0 0 0 0 0 0 0 0 0 
0 0 0 0 0 0 0 0 0 
0 0 0 0 0 0 0 0 0 
0 0 0 0 0 0 0 7.70675e-15 0 
0 0 0 0 0 0 0 0 0 
0 0 0 3.11889e-15 0 0 0 0 0 
0 0 0 0 0 0 0 0 0 
0 0 0 0 0 0 0 0 0 
0 0 0 0 0 0 0 0 0 
0 0 0 0 0 0 0 0 0 
0 0 0 0 0 0 0 0 0 
0 0 2.57974e-15 0 0 0 0 0 0 
0 0 0 0 0 0 0 0 0 
0 0 0 0 0 0 0 0 0 
0 0 0 0 0 0 0 0 0 
0 0 0 0 0 0 0 0 0 
0 0 0 0 0 0 0 0 0 
0 0 0 0 0 0 0 0 0 
0 0 0 0 0 0 0 0 0 
0 0 0 0 0 0 0 0 0 
0 0 0 0 0 0 0 0 0 
0 0 0 0 0 0 1.42745e-14 0 0 
0 0 0 0 0 0 0 0 0 
0 0 0 0 0 0 0 0 0 
0 0 0 0 0 0 0 0 0 
0 0 0 0 0 0 0 0 0 
0 0 0 0 0 5.53915e-15 0 0 0 
0 0 0 0 0 0 0 0 0 
0 0 0 0 0 0 0 0 0 
0 0 0 0 0 0 0 0 0 
0 0 0 0 0 0 0 0 0 
0 0 0 0 0 0 2.7549e-14 0 0 
0 0 0 0 0 0 0 0 0 
0 0 0 0 0 0 0 0 0 
0 0 0 0 0 0 0 0 0 
0 0 0 0 0 0 0 0 0 
0 0 0 0 0 0 0 0 0 
0 0 0 0 0 0 0 0 0 
0 0 0 0 0 0 0 0 0 
0 2.37156e-14 0 0 0 0 0 0 0 
0 0 0 0 0 0 0 0 0 
0 0 0 1.69131e-14 0 0 0 0 0 
0 0 0 0 0 0 0 0 0 
0 0 0 0 0 0 0 0 0 
0 0 0 0 0 0 0 0 0 
0 0 0 0 0 0 0 0 0 
0 0 0 0 0 0 0 0 0 
0 0 0 0 0 0 0 0 0 
0 0 0 0 0 0 0 0 0 
0 0 0 0 0 0 0 0 0 
0 0 0 0 0 0 0 0 0 
0 0 0 0 0 0 0 0 0 
0 0 0 0 0 0 0 0 0 
0 0 0 0 0 0 0 0 0 
0 0 0 0 0 0 0 0 0 
0 0 0 0 0 0 0 0 0 
0 0 0 0 0 0 0 0 0 
0 0 0 0 0 0 0 0 0 
0 0 0 0 0 0 0 0 0 
0 0 0 0 0 0 0 0 0 
5.3815e-16 0 0 0 0 0 0 0 0 
0 0 0 0 0 0 0 0 0 
0 0 0 0 0 0 0 0 0 
0 0 0 0 0 0 0 0 0 
0 0 0 0 0 0 0 0 0 
0 0 0 0 0 0 0 0 0 
0 0 0 0 0 0 0 0 0 
0 0 0 0 0 0 0 0 0 
0 0 0 0 0 0 0 0 0 
0 1.79802e-14 0 0 0 0 0 0 0 
0 0 0 0 0 0 0 0 0 
0 0 0 0 0 0 0 0 0 
0 0 0 0 0 0 0 0 0 
0 0 0 0 0 0 0 0 0 
0 0 0 0 0 0 0 0 0 
0 0 0 0 0 0 0 0 0 
0 0 0 0 0 0 0 0 0 
0 0 0 0 0 0 0 0 0 
0 0 0 0 0 0 0 0 8.77419e-15 
0 0 0 0 0 0 0 0 0 
0 0 0 0 0 0 0 0 0 
0 0 0 0 0 0 0 0 0 
0 0 0 0 0 0 0 0 0 
0 0 0 0 0 0 0 0 0 
0 0 0 0 0 0 0 0 0 
0 0 0 0 0 0 0 0 0 
0 0 0 0 0 0 0 0 0 
0 0 0 0 0 0 0 0 0 
0 0 0 0 0 0 0 0 0 
0 0 0 0 0 0 0 0 0 
0 0 0 0 0 0 0 0 0 
0 0 0 0 0 0 0 0 0 
0 0 0 0 0 0 0 0 0 
0 0 0 0 0 0 0 0 0 
0 0 0 0 0 0 0 0 0 
0 0 0 0 0 0 0 0 0 
0 0 0 6.30766e-15 0 0 0 0 0 
0 0 0 0 0 0 0 0 0 
0 0 0 0 0 0 0 0 0 
0 0 0 0 0 0 0 0 0 
0 0 0 0 0 0 0 0 0 
0 0 0 0 0 0 0 0 0 
0 0 0 0 0 0 0 0 0 
0 0 0 0 0 0 0 0 0 
0 0 0 0 0 0 0 0 0 
0 0 0 0 0 0 0 0 0 
0 0 0 0 0 0 0 0 0 
0 0 0 0 0 0 0 0 6.61439e-15 
0 0 0 0 0 0 0 0 0 
0 0 0 0 0 0 0 1.8304e-15 0 
0 0 0 0 0 0 0 0 0 
0 0 0 0 1.17833e-15 0 0 0 0 
0 0 0 0 0 0 0 0 0 
0 0 0 0 0 0 0 0 0 
0 0 0 0 1.92008e-14 0 0 0 0 
0 0 0 0 0 0 0 0 0 
0 0 0 0 0 0 0 0 0 
0 0 0 0 0 0 0 0 0 
0 0 0 0 0 0 0 0 0 
0 0 0 0 0 0 0 0 0 
0 0 0 0 0 0 0 0 0 
0 0 0 0 0 0 0 0 0 
0 0 0 0 0 0 0 0 0 
0 0 0 0 0 0 0 0 0 
0 0 0 0 0 0 0 0 0 
0 0 0 0 0 0 0 0 0 
0 0 0 0 0 0 0 0 0 
0 0 0 0 0 0 0 0 0 
0 0 0 0 0 0 0 0 0 
0 0 0 0 0 0 0 0 0 
0 0 0 0 0 0 0 0 0 
0 3.35515e-15 0 0 0 0 0 0 0 
0 0 0 0 0 0 0 0 0 
0 0 0 0 0 0 0 0 0 
0 0 0 0 0 0 0 0 0 
0 0 0 0 0 0 0 0 0 
0 0 0 0 0 0 0 0 0 
0 0 0 0 0 0 0 0 0 
0 0 0 0 0 0 0 7.80946e-14 0 
0 0 0 0 0 0 0 0 0 
0 0 0 0 0 0 0 0 0 
0 0 0 0 0 0 0 0 2.28664e-14 
0 0 0 0 0 0 0 0 0 
0 0 0 4.31691e-14 0 0 0 0 0 
0 0 0 0 0 0 0 0 0 
0 0 0 0 0 0 0 0 0 
0 0 0 0 0 0 0 0 0 
0 0 0 0 0 0 0 0 0 
0 0 0 0 0 0 0 0 0 
0 0 0 0 0 0 0 0 0 
0 0 0 0 0 0 0 0 0 
0 0 0 0 0 0 0 0 0 
0 0 0 0 0 0 0 0 0 
0 0 0 0 0 0 0 0 0 
0 0 0 0 0 0 0 0 0 
0 0 0 0 0 0 0 0 0 
0 0 0 0 0 0 0 0 0 
0 0 0 0 0 0 0 0 0 
0 0 0 0 0 0 0 0 0 
0 0 0 0 0 0 0 0 0 
0 0 0 0 0 0 0 0 0 
0 0 0 0 0 0 0 0 0 
0 0 0 0 0 0 0 0 0 
0 0 0 0 0 0 0 0 0 
0 0 0 0 0 0 0 0 0 
0 1.74294e-16 0 8.88412e-15 0 0 0 0 0 
3.07843e-14 0 0 0 4.23513e-14 0 0 0 0 
0 0 0 0 0 0 0 0 0 
0 0 0 0 0 0 0 0 0 
0 0 0 0 0 0 0 0 0 
0 0 0 0 0 0 0 0 0 
0 0 0 0 0 0 0 0 0 
0 0 0 0 0 0 0 0 0 
0 0 0 0 0 0 0 0 0 
0 0 0 0 0 0 0 0 0 
0 0 0 0 0 0 0 0 0 
0 0 0 0 0 0 0 0 0 
0 0 0 0 0 0 0 0 0 
0 0 0 0 0 0 0 0 0 
0 0 0 0 0 0 0 0 0 
0 0 0 0 0 0 0 0 0 
0 0 0 0 0 0 0 0 0 
0 0 0 0 0 0 0 0 0 
0 0 0 0 0 0 2.16458e-14 0 0 
0 0 0 0 0 8.61812e-15 0 0 0 
0 0 0 0 0 0 0 0 0 
0 0 0 0 0 0 0 0 0 
0 0 0 0 3.95722e-15 0 0 0 0 
0 0 0 0 0 0 0 0 0 
0 0 0 0 0 0 0 0 0 
0 0 0 0 0 0 0 0 0 
0 2.07202e-13 0 0 0 0 0 0 0 
0 0 0 0 0 0 0 0 0 
0 0 0 0 0 0 0 0 0 
1.34422e-13 0 0 0 0 0 0 0 0 
0 0 0 0 0 0 0 0 0 
0 0 0 0 0 0 0 0 0 
0 0 0 0 0 0 0 0 0 
0 0 0 0 0 0 0 0 0 
0 0 0 0 0 0 0 0 0 
0 0 0 0 0 0 0 0 0 
0 0 0 0 0 0 0 0 0 
0 0 0 0 0 0 0 0 0 
0 0 0 0 0 0 0 0 0 
0 3.30954e-14 0 0 0 0 0 0 0 
0 0 0 0 0 0 0 0 0 
0 0 0 0 0 0 0 0 0 
0 0 0 0 0 0 0 0 0 
0 0 9.42387e-16 0 0 0 0 0 0 
0 0 0 0 0 0 0 0 0 
0 0 0 0 0 0 0 0 0 
0 0 0 0 0 0 0 0 0 
0 0 0 0 0 0 0 0 0 
0 0 0 0 0 0 0 0 0 
0 0 0 0 0 0 0 0 0 
0 0 0 0 0 0 0 0 0 
0 0 0 0 0 0 0 0 0 
0 0 0 0 3.16907e-14 0 0 0 0 
0 0 0 0 0 0 0 0 0 
0 0 0 0 0 0 0 1.89317e-13 0 
0 0 0 0 0 0 0 0 0 
0 0 0 0 0 0 0 0 0 
0 0 0 0 0 0 0 0 0 
2.36498e-13 1.39787e-14 0 0 0 0 0 0 0 
9.39276e-14 0 0 0 0 0 0 0 0 
0 0 1.03017e-14 0 0 0 0 0 5.61173e-14 
0 0 0 0 0 0 0 0 0 
0 0 0 0 0 0 0 0 0 
1.96897e-14 0 0 0 0 0 0 0 0 
0 0 0 0 0 0 0 0 0 
0 0 0 0 0 0 0 0 0 
0 0 0 0 0 0 0 0 0 
0 0 0 0 0 0 0 0 0 
0 0 0 0 0 0 0 0 0 
0 0 0 0 0 0 0 0 7.83555e-15 
0 0 0 0 0 0 0 0 0 
0 0 0 0 0 0 0 0 0 
0 0 0 0 0 0 0 0 0 
0 0 0 0 0 0 0 0 0 
0 0 0 0 0 0 0 0 0 
0 0 0 0 0 0 0 0 0 
0 0 0 0 0 0 0 0 0 
0 0 0 0 0 0 0 0 0 
0 0 0 0 0 0 0 0 0 
0 0 0 0 0 0 0 0 0 
0 9.09779e-15 0 0 0 0 8.84067e-14 0 0 
0 0 0 0 0 0 0 3.46606e-13 0 
0 0 0 0 0 0 0 0 0 
0 0 0 0 0 0 0 0 0 
0 0 0 0 0 0 0 0 0 
0 0 0 0 0 7.60682e-13 0 0 0 
0 0 0 0 0 0 0 0 0 
0 0 0 0 0 0 0 0 0 
0 0 0 0 0 0 0 0 0 
0 0 0 0 0 0 0 0 0 
0 6.41767e-14 0 0 0 0 3.64729e-13 0 0 
0 0 0 0 0 0 0 0 0 
0 0 0 0 0 0 0 0 0 
0 0 0 0 0 0 0 0 0 
0 0 0 0 0 0 0 0 0 
0 0 0 0 0 0 0 0 0 
0 0 0 0 0 0 0 0 0 
0 0 0 0 0 0 0 0 0 
0 0 0 0 0 0 0 0 0 
0 0 0 0 0 0 0 0 0 
0 0 0 0 0 0 0 0 0 
0 0 0 0 0 0 0 0 0 
0 0 0 0 0 0 0 0 0 
0 0 0 0 0 0 0 0 0 
0 0 0 0 0 0 0 0 0 
0 0 0 0 1.29099e-14 0 0 0 0 
0 0 0 0 0 0 2.03772e-15 0 2.1961e-13 
0 0 0 2.22958e-14 0 0 0 0 0 
0 0 1.2906e-13 0 0 0 0 0 0 
0 0 3.32588e-13 4.07715e-13 0 0 0 0 0 
0 0 0 0 0 0 0 0 0 
0 0 0 0 0 0 0 0 1.51895e-13 
0 0 0 5.03346e-13 0 0 0 0 0 
0 0 0 0 0 0 0 0 0 
0 0 0 0 0 0 0 0 0 
0 0 0 0 0 0 0 0 0 
0 0 0 5.8239e-14 0 0 0 0 0 
0 0 0 0 0 0 0 0 0 
0 0 0 0 0 4.59166e-13 0 0 0 
0 0 3.99449e-13 0 0 0 0 0 0 
0 0 0 0 0 0 0 0 0 
0 9.33203e-15 0 0 0 0 0 0 0 
0 0 0 0 0 0 0 0 0 
0 0 0 0 0 0 0 0 0 
0 1.55639e-15 0 0 0 0 2.28493e-15 0 0 
0 6.85634e-14 0 0 0 0 0 0 0 
0 0 0 0 0 0 0 0 0 
0 0 0 0 0 0 0 0 0 
0 0 0 0 0 0 0 0 0 
0 0 0 0 0 0 0 0 0 
0 0 0 0 0 0 0 0 0 
0 0 0 0 0 0 0 0 0 
0 0 0 0 1.20106e-14 0 0 0 0 
0 0 0 0 0 0 0 0 0 
0 4.81012e-14 0 0 0 7.73131e-15 0 0 0 
0 0 0 0 0 0 0 0 0 
0 0 0 0 0 0 0 1.04828e-13 1.37215e-14 
0 0 0 6.18011e-13 0 0 0 0 0 
3.73639e-13 0 0 0 5.49834e-13 0 0 0 0 
0 0 0 0 0 0 0 0 0 
0 0 0 0 0 0 0 0 0 
0 0 0 0 0 0 0 0 6.97998e-13 
0 0 0 7.85075e-14 0 0 0 0 0 
0 0 0 0 0 0 0 0 0 
0 0 0 0 0 0 0 0 0 
0 0 0 0 0 0 0 0 0 
0 0 0 0 0 0 0 0 0 
3.13865e-13 0 0 1.61357e-13 0 0 0 0 0 
0 0 0 0 0 0 0 1.9981e-14 0 
0 0 0 0 2.39878e-14 0 0 0 0 
0 0 0 0 2.87341e-14 0 0 0 0 
0 0 0 0 0 0 0 0 0 
0 8.51009e-15 0 0 0 0 0 0 0 
0 0 0 0 0 0 0 0 0 
0 0 0 0 0 0 0 0 0 
0 0 0 0 0 0 0 0 0 
0 0 0 0 0 0 0 0 0 
0 0 0 0 0 0 1.08982e-14 0 0 
0 0 0 0 0 0 0 0 0 
0 0 0 0 0 0 0 0 0 
0 0 0 0 0 0 0 0 8.0497e-14 
0 0 0 0 0 0 0 0 0 
0 0 3.67823e-13 1.84105e-13 0 0 0 0 0 
0 0 0 0 0 0 0 0 0 
0 0 0 0 2.06908e-13 0 0 0 8.64034e-14 
0 0 0 6.08452e-13 0 0 0 0 0 
0 0 0 0 0 0 0 0 0 
0 0 0 9.15744e-13 0 0 0 0 0 
0 1.36893e-12 0 0 0 0 0 0 0 
0 0 0 0 0 0 0 0 0 
0 0 0 8.89267e-13 0 0 3.78995e-13 0 0 
0 0 0 0 0 0 2.68985e-13 0 0 
0 0 0 0 4.53103e-13 0 0 0 0 
0 0 0 0 0 0 1.33606e-12 0 0 
0 0 0 4.3778e-13 0 0 0 0 9.53071e-13 
0 0 0 0 0 0 0 0 0 
0 0 0 0 0 0 0 0 0 
0 0 0 2.22593e-14 0 0 0 0 0 
0 0 0 0 0 0 0 0 0 
0 0 0 0 0 0 0 0 0 
0 0 0 0 0 0 0 0 0 
0 0 0 0 2.24306e-13 0 0 0 0 
0 0 0 0 0 0 0 0 0 
0 0 0 0 0 0 0 0 0 
0 0 0 0 0 0 0 0 0 
0 0 0 0 0 0 0 0 0 
0 0 0 0 0 0 0 0 0 
0 0 0 0 0 0 0 0 0 
0 0 0 0 0 0 0 1.46715e-13 0 
0 0 0 0 0 4.56685e-13 0 0 0 
0 0 0 0 0 0 7.4925e-13 0 0 
0 0 0 0 0 0 0 6.38786e-13 0 
0 0 0 0 0 2.50092e-14 0 1.18029e-13 0 
0 0 0 0 0 0 0 0 0 
0 0 0 0 0 0 0 0 0 
0 0 0 1.19832e-13 0 0 0 0 0 
0 0 0 0 0 0 0 0 0 
0 1.57174e-14 1.26308e-12 0 0 0 0 0 9.64772e-13 
5.40522e-15 0 0 0 0 0 0 0 0 
0 0 0 0 0 0 0 0 0 
0 0 0 0 0 0 0 0 0 
2.3133e-14 0 0 0 0 0 0 1.0078e-12 0 
0 0 0 0 0 0 0 7.30512e-14 0 
0 0 3.92216e-13 0 0 0 6.55019e-14 0 0 
0 0 0 0 0 0 0 0 0 
0 0 0 0 0 0 0 0 0 
0 0 0 0 0 0 0 3.12242e-14 0 
0 0 0 0 0 0 0 0 0 
1.99054e-13 1.0541e-15 0 0 0 0 0 0 0 
0 0 0 0 0 0 0 0 0 
0 0 0 0 0 0 0 0 0 
0 0 0 0 0 0 0 0 0 
0 0 0 0 0 0 0 0 0 
0 0 0 0 0 0 0 0 0 
0 0 0 0 0 0 0 0 2.71352e-14 
0 0 0 0 0 0 0 0 0 
0 0 0 0 0 0 2.7837e-13 0 0 
0 0 0 0 0 0 0 0 0 
0 0 0 0 0 0 0 0 0 
0 0 0 0 0 0 3.3694e-15 0 0 
0 0 0 0 0 0 0 0 0 
0 0 0 0 0 0 2.90252e-12 0 0 
0 0 0 0 0 0 0 0 3.26221e-12 
0 0 0 0 0 0 0 0 0 
3.16887e-12 0 0 0 2.3394e-14 2.0775e-13 0 0 0 
0 0 0 0 0 0 0 0 0 
0 0 0 0 0 0 4.77978e-13 0 3.25795e-13 
0 0 0 8.82311e-15 0 0 0 0 0 
0 0 0 0 0 0 0 0 0 
0 0 0 0 0 0 0 0 0 
0 0 0 0 0 0 6.67379e-14 0 0 
0 0 0 0 0 0 0 0 0 
6.76678e-14 0 0 0 0 0 0 0 0 
0 0 0 0 0 0 0 0 0 
0 0 0 0 0 0 0 0 0 
0 0 0 0 0 0 0 0 0 
0 0 0 0 0 0 0 0 1.94881e-14 
0 0 0 0 0 5.18069e-13 0 0 0 
0 0 0 0 0 0 0 0 0 
0 0 0 0 0 0 0 0 0 
0 0 0 0 0 0 0 0 0 
0 0 0 0 0 0 0 0 0 
0 0 0 0 0 0 0 0 0 
0 0 0 1.53657e-13 0 0 0 0 0 
2.5982e-13 0 0 0 0 0 0 0 0 
0 0 0 0 0 0 0 0 0 
0 0 0 0 0 0 0 0 0 
1.07738e-12 0 0 0 0 0 0 1.39251e-12 0 
0 0 0 0 0 0 0 0 0 
0 5.08574e-12 0 4.65246e-12 0 0 0 0 0 
0 0 0 0 0 0 0 0 7.02345e-14 
0 0 0 0 0 0 0 0 0 
0 0 0 0 0 0 0 0 0 
0 0 0 0 0 0 0 0 0 
6.99218e-13 1.01655e-14 0 0 0 0 0 1.44614e-13 0 
0 0 0 0 0 0 0 0 0 
0 0 0 0 0 0 0 0 0 
0 0 0 0 0 0 0 0 0 
0 0 0 0 0 0 0 0 0 
0 0 0 0 0 0 1.82407e-13 0 0 
0 0 0 0 0 0 0 0 0 
0 0 0 0 2.803e-14 0 0 0 0 
0 0 0 0 0 0 0 0 0 
0 0 0 0 0 0 0 0 0 
0 0 0 0 0 0 0 0 0 
0 0 2.88153e-14 0 0 0 0 0 0 
0 0 0 0 0 0 0 0 0 
0 0 0 0 0 0 0 0 0 
0 0 0 0 0 0 0 0 0 
0 0 0 0 0 0 0 0 0 
5.10839e-15 0 0 0 0 0 0 0 0 
0 0 0 0 0 0 0 0 0 
0 1.30465e-12 0 0 0 0 0 0 1.38138e-12 
0 0 0 0 2.69235e-12 0 0 0 1.30913e-12 
0 0 0 0 0 0 0 0 0 
0 0 0 0 9.63258e-13 0 0 0 0 
0 0 0 0 0 0 0 0 0 
0 0 0 0 0 0 0 0 0 
0 0 0 0 0 1.94949e-12 0 0 0 
6.13896e-12 0 0 5.85969e-12 0 0 0 0 0 
0 0 0 0 0 0 0 0 0 
0 0 0 9.71213e-12 0 0 0 0 0 
0 0 0 0 0 0 0 0 0 
0 0 0 0 0 0 0 0 0 
0 0 0 0 1.39869e-12 0 0 4.94482e-12 0 
0 0 0 0 0 0 0 0 0 
0 4.21777e-12 0 0 0 1.48874e-12 0 0 0 
0 0 0 0 0 0 0 6.37526e-13 0 
0 0 0 0 0 0 5.11982e-13 0 0 
0 0 0 0 0 0 0 0 0 
0 0 0 0 0 0 0 0 0 
0 0 0 0 0 0 0 0 0 
0 0 0 0 0 0 0 0 0 
0 0 0 0 0 0 0 0 0 
0 0 0 0 0 0 0 0 0 
0 0 0 0 0 0 0 0 0 
0 0 0 0 0 0 0 0 0 
0 0 0 0 0 0 0 0 0 
0 0 0 0 2.89991e-14 0 0 0 0 
0 0 0 0 0 3.48486e-14 0 1.65394e-12 0 
0 0 0 0 0 0 0 0 0 
0 0 0 1.15435e-12 0 0 0 2.00309e-13 0 
0 0 0 0 0 0 0 0 0 
0 0 0 0 0 0 0 0 0 
0 0 0 0 5.29462e-13 0 0 0 0 
0 0 0 0 0 0 0 0 3.50654e-13 
0 0 0 0 0 0 0 0 0 
0 0 0 6.6211e-13 0 0 0 0 0 
0 5.59805e-15 0 0 0 0 0 0 0 
0 0 0 0 0 0 0 2.80397e-12 0 
1.65412e-12 0 0 0 0 0 0 0 0 
0 0 0 0 0 0 0 0 0 
3.23688e-13 0 0 0 0 0 0 0 1.0938e-11 
0 9.82973e-13 0 0 0 5.98525e-12 0 0 0 
0 0 0 0 0 0 0 0 0 
0 0 0 0 0 1.51754e-13 0 0 0 
0 0 0 0 0 0 0 0 0 
0 0 0 0 0 0 0 0 0 
0 0 0 0 0 0 0 0 0 
0 0 0 0 0 0 0 0 6.97743e-13 
0 0 0 0 1.04503e-13 0 0 0 0 
0 0 0 3.28236e-13 0 0 0 0 0 
0 0 0 0 0 0 0 0 0 
0 0 0 0 0 0 0 0 0 
0 0 0 0 0 0 0 0 0 
0 0 0 0 0 0 0 0 0 
0 0 0 0 5.13032e-14 1.22589e-13 0 0 0 
0 0 0 0 0 0 0 0 0 
0 9.90611e-13 0 0 0 3.13827e-12 0 0 0 
0 0 1.73703e-12 0 4.37379e-12 0 0 0 0 
0 0 0 0 0 0 0 0 0 
3.12839e-12 0 3.19312e-12 0 0 0 0 0 0 
1.65567e-11 0 0 0 0 1.48635e-11 0 1.03915e-11 0 
0 0 0 0 0 0 0 0 0 
0 0 0 0 4.28002e-13 0 0 0 1.63014e-11 
0 0 0 0 0 0 0 0 0 
0 0 0 0 0 0 0 0 0 
0 0 0 0 0 0 0 0 0 
0 0 0 0 0 2.92296e-13 0 0 0 
0 0 0 0 0 0 0 0 0 
0 0 0 0 0 0 0 0 0 
0 0 0 0 0 0 0 0 6.06784e-13 
0 0 2.22676e-12 0 0 1.22353e-14 4.9441e-13 0 0 
0 0 0 1.03934e-12 0 0 9.54472e-13 0 0 
0 0 0 0 0 0 1.42897e-12 0 9.40986e-13 
0 0 0 0 0 0 0 0 0 
0 0 0 0 0 0 7.77667e-13 0 0 
0 1.85505e-12 0 0 0 0 0 0 0 
2.72827e-12 0 0 0 0 0 1.56681e-12 0 0 
0 0 0 0 0 0 1.83394e-14 0 7.95256e-14 
0 0 0 0 0 0 0 0 0 
0 0 0 0 0 0 0 0 0 
0 0 0 0 0 0 1.11231e-14 0 0 
0 0 0 0 0 0 0 0 0 
0 0 0 0 0 4.47301e-13 0 0 0 
0 0 0 0 0 4.34097e-12 0 5.67251e-12 0 
0 0 0 0 0 0 0 5.70336e-12 0 
0 0 0 0 0 0 0 0 0 
0 0 3.37225e-12 0 0 0 0 0 0 
0 0 0 0 0 0 1.7068e-11 6.61269e-13 0 
0 0 0 0 0 2.79616e-13 0 0 0 
0 0 0 0 0 0 0 0 0 
0 0 0 0 0 0 0 0 0 
0 0 0 0 0 0 0 0 0 
0 0 1.52653e-12 9.58913e-12 0 0 0 0 0 
0 0 0 0 0 3.94929e-15 0 0 0 
0 0 0 0 0 9.30326e-13 0 0 0 
0 0 0 0 0 1.2709e-14 0 1.51948e-12 0 
0 0 4.22007e-12 0 0 1.50324e-11 0 0 0 
0 0 0 0 0 0 0 0 0 
0 0 3.09178e-12 0 0 0 0 0 0 
0 0 0 2.91133e-13 0 0 0 3.89999e-12 0 
0 0 0 0 0 1.06763e-12 0 0 0 
0 0 0 0 0 0 0 0 0 
0 0 0 0 0 0 0 0 0 
0 0 8.73788e-15 0 0 0 0 0 0 
0 0 3.42969e-12 0 0 0 0 0 0 
0 0 0 1.11787e-13 0 0 0 0 0 
0 0 0 0 0 0 0 0 0 
0 0 0 0 0 0 0 0 0 
0 0 0 0 0 0 0 0 0 
0 0 0 0 0 0 0 0 0 
0 0 0 0 0 0 0 0 0 
0 0 0 0 2.33074e-15 0 0 0 0 
2.98925e-12 0 0 1.92212e-12 0 0 0 0 0 
0 0 0 0 8.15236e-12 0 0 0 0 
0 0 0 0 0 0 0 0 0 
1.18279e-12 8.96921e-16 0 0 0 1.65262e-11 0 1.93087e-11 0 
0 0 0 0 0 0 0 3.16682e-12 0 
1.33212e-14 8.85682e-12 4.70961e-14 0 0 0 0 0 3.27189e-13 
0 0 0 0 0 0 0 0 0 
3.16963e-11 0 0 0 0 0 0 0 0 
0 1.85028e-11 1.99807e-11 0 0 0 0 1.69466e-13 0 
0 1.94732e-14 0 0 0 0 0 0 0 
0 0 0 0 1.08371e-11 0 0 0 0 
0 0 0 0 0 0 1.18299e-11 4.01519e-11 0 
0 0 0 6.36324e-12 0 3.30057e-13 0 2.43893e-12 0 
0 0 0 0 0 0 0 0 0 
0 0 0 0 0 0 0 0 0 
0 0 3.47517e-13 0 0 0 0 0 0 
0 0 0 0 0 0 0 0 0 
0 3.7101e-14 0 0 0 0 0 0 0 
0 0 0 0 0 0 0 0 0 
0 0 0 0 0 0 0 0 0 
0 0 0 0 0 0 0 0 0 
0 0 0 0 0 0 0 0 0 
0 0 0 0 0 0 0 0 0 
0 0 0 0 0 0 0 0 0 
0 0 0 0 0 0 0 0 0 
0 0 0 0 0 0 0 0 0 
0 0 0 0 0 0 0 4.58853e-12 0 
0 0 0 0 0 0 0 0 0 
0 0 1.42327e-11 0 0 0 0 0 0 
0 1.96865e-13 0 0 3.75781e-14 0 0 0 0 
0 0 0 0 0 0 0 0 5.18719e-14 
0 2.09782e-11 0 0 0 0 0 0 0 
0 0 1.30373e-11 0 0 0 0 0 0 
0 0 0 0 0 0 0 0 0 
0 0 0 0 0 4.69364e-14 0 0 0 
0 0 0 0 0 0 4.8249e-12 1.82767e-11 0 
0 2.33808e-11 0 0 0 0 0 0 0 
0 0 0 0 0 0 0 0 0 
0 0 1.30928e-11 0 0 0 0 0 0 
0 0 0 2.02272e-12 0 0 0 1.30918e-11 0 
1.01157e-13 0 0 3.65749e-15 0 0 0 0 0 
0 0 0 0 0 0 0 0 0 
0 0 0 7.57174e-13 0 0 0 0 0 
0 0 0 7.7193e-12 0 0 0 0 0 
0 0 0 0 0 0 0 0 0 
0 0 0 0 0 0 0 0 2.69229e-14 
0 0 0 0 0 2.86002e-12 0 0 9.3528e-12 
0 0 0 0 0 0 0 4.58684e-14 0 
0 3.72887e-12 0 0 4.37192e-13 0 0 0 0 
0 8.19698e-14 0 0 0 0 0 0 0 
0 0 0 0 0 0 0 0 0 
0 0 0 0 0 0 0 0 0 
0 2.99833e-14 0 0 0 0 0 0 0 
0 0 0 0 0 0 0 0 0 
0 2.57032e-12 0 0 0 0 0 0 0 
0 0 0 0 0 0 1.88491e-13 0 0 
0 0 1.86433e-12 0 0 0 0 0 0 
0 0 0 0 0 0 0 0 0 
2.30435e-12 0 0 0 0 1.36933e-11 0 0 0 
3.87117e-11 0 3.39126e-11 0 0 0 0 1.78291e-12 0 
0 0 0 0 0 0 0 0 0 
0 2.61964e-11 0 0 2.35814e-12 0 0 6.00652e-11 0 
0 0 0 0 0 0 0 0 0 
0 0 0 0 0 0 0 0 0 
3.73283e-11 0 0 9.12416e-12 0 1.90562e-11 0 0 0 
0 0 0 0 0 0 1.3739e-11 1.95608e-12 0 
0 2.7883e-12 0 0 0 0 0 0 0 
0 0 0 0 0 3.30801e-11 0 0 0 
0 6.28744e-12 0 0 0 0 0 0 1.17317e-14 
0 0 0 7.36898e-12 0 0 0 0 0 
0 0 5.95858e-14 0 0 0 0 0 0 
0 0 0 0 0 2.32053e-12 0 0 0 
4.10377e-12 0 0 0 0 0 0 0 0 
0 0 0 0 0 0 0 0 0 
0 1.54089e-14 0 5.52702e-12 0 0 0 0 0 
0 0 0 0 1.21616e-12 0 0 0 0 
8.15004e-12 0 1.52916e-13 0 0 0 0 0 0 
0 0 0 0 0 0 0 0 0 
0 0 0 0 0 0 0 0 0 
0 0 0 0 0 0 0 0 0 
0 0 0 0 0 0 0 0 0 
0 0 0 0 0 0 0 0 0 
0 0 0 0 0 0 0 0 4.90866e-12 
0 0 0 1.59679e-13 0 0 1.35704e-11 0 0 
2.65384e-11 0 0 0 0 0 0 3.52674e-13 0 
0 0 0 0 0 1.64625e-11 0 0 0 
0 0 0 0 0 0 2.59816e-11 0 0 
2.21873e-11 2.60018e-11 0 0 0 3.93034e-11 0 0 0 
0 0 0 0 0 0 0 0 5.11706e-13 
0 0 2.16728e-11 0 8.12751e-11 0 0 3.26585e-11 0 
0 0 0 0 0 0 0 0 0 
0 2.97199e-11 0 0 0 0 0 0 0 
0 0 0 0 5.69199e-12 0 0 0 0 
0 0 0 0 0 0 0 0 4.70589e-13 
0 0 0 0 0 0 0 0 0 
5.04206e-12 0 0 6.19697e-11 0 0 0 7.85151e-13 4.56892e-13 
0 0 0 0 5.01506e-12 0 0 2.85715e-12 3.18064e-13 
0 1.27256e-11 0 0 0 0 0 0 0 
0 0 1.33107e-11 0 0 0 0 8.80513e-12 0 
0 0 0 2.34453e-13 2.4955e-13 0 0 0 0 
0 0 0 1.39014e-13 0 0 0 0 0 
0 0 0 0 0 0 0 0 0 
0 0 0 0 0 4.16024e-13 0 0 3.30914e-11 
0 0 0 5.43969e-13 0 0 0 0 0 
0 0 0 0 0 0 0 0 7.20855e-13 
0 0 0 0 0 0 0 0 0 
0 0 0 0 0 0 0 0 0 
0 0 0 0 0 0 0 0 0 
0 0 0 0 0 0 0 0 0 
0 0 0 0 0 0 0 0 0 
0 0 0 0 0 1.67017e-12 0 0 0 
0 0 0 0 0 0 0 0 0 
2.55252e-11 0 0 0 5.83093e-11 0 0 0 0 
0 0 1.42482e-11 0 0 0 0 0 0 
0 0 1.42162e-11 2.58149e-11 0 0 0 0 0 
0 0 0 0 2.31331e-11 0 0 3.15094e-13 0 
0 0 0 9.65305e-13 0 7.17697e-11 0 0 0 
2.22028e-11 2.75173e-12 6.06379e-11 1.02643e-10 0 0 0 0 0 
0 0 0 0 0 0 0 0 0 
4.39382e-11 4.69013e-11 0 0 6.07098e-11 4.38851e-14 2.22592e-11 0 0 
3.34602e-11 0 1.5884e-11 0 7.25965e-12 0 0 0 0 
0 0 0 0 0 0 0 0 0 
0 3.45445e-12 0 0 0 0 5.56941e-11 0 0 
0 0 1.58961e-11 0 5.14104e-11 0 0 0 0 
0 0 0 1.39279e-11 3.12309e-11 0 0 0 0 
0 0 1.37316e-12 0 0 0 0 0 0 
0 7.88813e-12 0 0 0 0 2.68884e-14 0 0 
0 0 0 0 0 0 0 0 0 
0 0 0 7.66841e-13 0 0 0 0 0 
0 0 0 0 0 0 0 0 0 
0 1.68526e-11 0 0 4.84814e-12 0 0 0 0 
0 0 0 0 1.0089e-11 0 0 0 0 
0 0 0 0 0 0 0 0 0 
0 0 0 0 0 0 0 0 0 
0 0 0 0 0 0 0 0 0 
0 0 0 0 0 0 0 0 0 
0 0 0 0 0 0 0 0 0 
0 0 0 0 0 0 0 0 0 
0 0 0 0 0 1.4886e-11 0 0 0 
4.09465e-12 3.73113e-12 0 0 8.85885e-12 0 0 0 0 
0 0 4.48668e-11 0 0 0 0 5.67601e-11 0 
0 0 0 0 0 0 0 0 7.45243e-13 
0 0 0 0 8.42423e-11 0 2.08861e-10 0 0 
0 4.30981e-12 4.99979e-11 3.87097e-11 2.40222e-11 7.47366e-13 0 2.65378e-11 0 
0 0 0 0 0 7.24871e-12 0 0 7.36558e-11 
0 0 0 0 0 1.25191e-11 7.82587e-11 0 0 
0 0 0 0 7.11153e-11 6.26054e-11 0 5.30719e-11 0 
6.71191e-13 0 0 0 0 2.37097e-11 0 2.94852e-12 2.68697e-11 
2.99128e-11 0 1.73709e-13 0 1.44068e-14 0 0 0 0 
0 0 0 0 0 0 0 0 4.88307e-11 
0 2.56279e-13 0 0 9.20057e-11 0 1.37745e-10 8.70409e-11 1.36342e-10 
0 3.41108e-11 0 0 0 0 3.03279e-11 0 0 
5.64846e-11 0 0 0 2.7048e-13 2.28468e-11 0 7.70247e-12 0 
3.16279e-13 0 0 9.47986e-14 1.53125e-11 0 1.96788e-12 3.01999e-11 0 
0 0 1.92454e-11 0 0 0 0 0 0 
0 0 1.48395e-12 0 0 0 7.93939e-12 0 0 
0 0 0 0 0 0 0 0 0 
0 0 0 0 0 0 0 0 0 
0 0 0 8.97553e-12 1.72261e-13 0 0 3.43333e-11 0 
0 0 0 0 5.79104e-12 0 0 0 2.13912e-12 
0 0 0 0 2.77909e-12 0 0 0 0 
0 0 8.23368e-15 0 0 0 0 0 0 
0 0 0 0 0 0 0 0 0 
0 0 0 0 0 0 0 0 0 
0 0 0 0 0 0 0 0 0 
0 0 0 0 0 0 1.89248e-12 3.65375e-11 0 
0 5.88049e-11 0 0 0 0 0 0 0 
0 0 0 0 1.34258e-14 0 0 0 0 
0 2.39384e-10 0 0 0 0 0 0 0 
0 0 0 2.13286e-11 0 0 0 0 0 
0 0 0 2.03728e-10 2.43399e-08 0 0 0 0 
0 0 0 0 3.72732e-11 0 0 0 0 
0 0 0 0 2.49798e-10 0 0 0 3.13173e-11 
0 1.05806e-11 0 0 0 0 0 0 5.62978e-11 
0 1.74666e-12 0 0 0 0 0 0 0 
0 0 0 0 0 0 0 5.60563e-12 3.51271e-11 
0 0 2.07116e-11 0 1.06722e-11 0 0 0 0 
0 3.6707e-12 4.57474e-11 5.11735e-13 0 0 0 0 0 
0 0 6.23579e-11 6.45696e-11 0 0 0 0 0 
1.23154e-10 0 0 0 0 0 0 1.18883e-12 0 
0 0 0 0 8.83292e-14 0 0 9.64342e-12 0 
0 2.35283e-11 0 0 0 0 0 0 0 
0 0 0 0 0 3.10983e-11 0 0 0 
0 0 0 0 0 0 0 0 0 
0 0 0 2.56248e-12 3.8055e-12 0 0 7.4938e-12 0 
0 0 1.76442e-11 0 0 0 0 0 0 
0 0 0 7.07444e-11 1.52853e-12 4.49228e-11 0 0 0 
1.84428e-12 0 0 0 0 0 1.13519e-12 0 0 
0 0 0 0 0 0 0 2.53015e-13 0 
0 0 0 0 0 0 0 0 0 
0 0 0 0 0 0 0 0 0 
0 0 0 0 0 0 0 0 0 
0 0 0 0 0 0 0 0 0 
0 0 0 0 0 1.04634e-11 0 3.94444e-13 0 
0 0 0 4.70325e-11 6.88671e-12 2.72169e-11 2.30547e-11 0 0 
1.16373e-13 7.85874e-12 0 2.44288e-14 0 0 0 0 0 
0 3.32892e-11 0 0 0 2.60363e-11 0 3.50607e-13 4.81955e-12 
0 1.49428e-11 0 0 9.56861e-12 1.53015e-11 4.62731e-11 0 0 
0 0 0 1.7784e-10 7.26412e-12 0 4.43963e-11 0 1.8786e-11 
0 0 0 0 0 0 1.23651e-11 1.92045e-11 0 
0 1.27768e-10 2.55015e-08 0 0 0 0 0 0 
1.99657e-11 0 0 4.98165e-14 2.65183e-08 0 0 1.25483e-10 0 
1.46437e-14 0 5.19439e-11 0 0 1.00436e-10 1.43521e-10 0 0 
0 0 0 0 3.01908e-11 1.11109e-11 0 0 0 
0 0 0 1.70543e-11 0 2.05983e-11 4.1185e-13 0 0 
0 0 1.09089e-10 5.49999e-11 0 0 0 0 0 
0 0 0 2.52388e-08 0 0 0 2.74891e-11 1.51908e-10 
8.55259e-11 0 0 1.81202e-10 4.96911e-11 0 5.89161e-12 6.1266e-11 7.52119e-11 
0 5.65904e-16 3.3324e-11 0 0 3.22916e-11 2.23997e-14 0 0 
0 4.12879e-11 3.98968e-12 0 2.41285e-11 0 0 0 0 
0 0 2.37566e-12 0 0 0 1.51297e-11 0 0 
0 0 0 0 0 0 0 0 1.12555e-13 
0 0 0 0 0 0 1.34456e-11 0 0 
0 0 0 0 0 0 0 0 0 
0 0 0 0 3.18869e-12 1.81133e-13 0 0 0 
0 0 0 0 0 0 0 0 0 
0 0 0 0 5.51648e-14 0 0 0 0 
0 0 0 0 0 0 0 0 0 
0 0 0 0 0 0 0 0 0 
0 0 0 0 0 0 0 0 0 
0 0 0 1.21559e-12 0 0 1.09258e-13 0 0 
1.60882e-11 0 0 0 0 8.59783e-11 8.47149e-11 0 0 
0 0 0 0 9.20861e-13 3.41657e-12 0 0 0 
0 1.65519e-10 0 0 0 1.11874e-11 0 0 0 
0 0 0 0 4.72615e-13 0 0 0 2.57425e-12 
0 0 0 0 0 0 8.03205e-11 8.49223e-11 0 
0 0 1.01219e-10 8.49846e-11 3.10181e-12 2.10111e-13 2.00463e-11 0 0 
0 0 0 0 0 3.93637e-11 0 0 0 
1.34048e-10 0 0 0 1.46818e-10 0 0 0 0 
2.653e-11 0 0 0 0 0 0 1.1269e-12 6.17064e-11 
0 0 7.92418e-11 0 0 4.81794e-14 2.46706e-08 2.47396e-10 0 
0 0 0 0 0 0 2.00227e-11 0 0 
0 0 4.135e-11 0 0 8.8711e-11 6.54323e-11 0 0 
9.85731e-11 7.31998e-11 2.33712e-11 2.99173e-14 0 0 0 0 1.3499e-10 
0 0 0 3.48305e-11 0 1.74378e-10 0 0 0 
1.03993e-10 0 0 0 4.9351e-11 6.44584e-11 0 6.78501e-12 0 
0 0 9.62147e-12 3.07334e-11 0 1.42936e-12 0 0 0 
0 0 0 6.95112e-11 0 3.14017e-11 0 8.28944e-11 0 
0 0 5.57314e-11 0 7.94624e-11 0 1.97661e-12 0 0 
0 1.39493e-11 0 0 1.77179e-12 0 0 0 0 
0 0 0 0 5.06565e-13 0 0 1.40456e-11 0 
0 0 1.85563e-11 8.69333e-11 1.85661e-11 0 0 0 0 
0 0 0 3.82318e-11 2.99881e-11 0 3.44661e-13 0 1.08618e-11 
0 1.79421e-11 0 0 0 0 0 0 0 
0 0 0 0 0 0 0 0 0 
0 0 0 0 0 0 0 0 0 
0 0 0 0 0 0 0 0 0 
0 0 0 0 0 0 0 0 0 
0 1.61666e-12 0 5.06173e-13 0 0 0 0 0 
0 6.33681e-12 0 5.86361e-11 0 7.22119e-11 0 0 0 
0 0 0 3.99823e-11 0 0 0 3.13503e-15 0 
0 2.63758e-08 0 2.38672e-10 0 0 0 0 0 
0 1.2033e-10 7.13406e-12 0 0 1.00815e-14 0 0 0 
0 2.52564e-13 0 0 0 2.62068e-11 6.28802e-11 0 0 
8.97816e-12 3.6041e-11 7.64417e-12 0 6.45731e-12 0 0 0 0 
0 0 0 2.29524e-11 1.4221e-11 0 5.11533e-11 0 3.11408e-14 
3.35274e-11 0 9.89521e-11 2.78801e-11 0 0 0 0 0 
0 0 0 0 0 0 5.32587e-11 0 0 
0 1.25539e-10 0 0 0 0 3.70086e-10 0 4.19176e-12 
0 0 0 3.21845e-11 0 0 0 0 0 
0 0 4.339e-11 8.12235e-11 0 2.15844e-10 0 0 6.06396e-11 
5.62266e-13 0 0 4.73382e-11 4.94262e-11 0 0 0 0 
1.22208e-10 0 0 0 0 3.03335e-10 2.73639e-08 2.69355e-10 0 
0 0 1.16662e-10 0 0 9.78045e-11 0 0 0 
1.08928e-11 0 0 0 0 0 0 0 0 
0 5.38616e-11 1.23967e-10 0 0 0 0 4.35435e-11 0 
0 0 0 0 0 1.0018e-11 0 0 0 
0 0 0 0 0 0 0 0 0 
0 0 0 0 3.72965e-11 1.12197e-12 0 0 0 
0 0 7.25327e-11 0 0 2.34322e-10 0 0 0 
0 1.35215e-11 0 5.07136e-11 0 0 0 0 0 
0 0 9.70876e-12 0 0 6.10851e-12 0 0 0 
0 0 3.38515e-15 0 0 0 0 0 0 
0 0 0 0 0 0 0 0 0 
0 0 0 0 0 0 0 0 0 
0 0 0 0 0 0 0 0 0 
0 2.58971e-12 0 0 0 0 0 3.66626e-11 0 
0 6.36052e-11 0 0 2.47515e-08 0 3.58883e-11 0 0 
4.03209e-11 0 0 0 2.14527e-11 0 0 0 0 
3.5086e-10 0 0 0 0 0 1.34158e-10 0 0 
1.47584e-10 0 1.79752e-12 0 8.05196e-11 8.0859e-12 0 4.63085e-13 0 
0 0 3.5406e-11 1.17702e-11 0 0 0 0 0 
0 9.46272e-13 2.15629e-11 2.30021e-11 0 2.98931e-11 0 0 0 
0 0 1.22596e-10 0 0 2.41102e-10 2.06234e-10 0 0 
0 2.83295e-11 6.37774e-11 9.61359e-11 0 0 0 0 0 
4.68335e-11 0 0 0 0 0 1.02937e-10 9.60939e-11 0 
1.52978e-10 0 1.66382e-10 0 0 9.5575e-11 0 6.424e-11 0 
0 0 2.03052e-11 0 0 0 0 0 0 
4.24761e-11 0 0 2.44813e-08 1.57102e-10 0 1.01652e-10 0 0 
0 0 0 0 0 9.65916e-11 0 0 1.53766e-10 
6.65019e-12 0 0 0 0 1.78349e-10 3.70598e-15 0 2.0136e-10 
0 0 0 0 1.53405e-12 0 1.59956e-10 0 0 
0 0 0 0 0 0 0 0 1.21038e-10 
0 0 0 6.41052e-11 1.58366e-10 0 1.25634e-12 0 0 
0 0 1.09872e-13 0 0 0 0 1.08064e-11 0 
0 0 0 1.74157e-13 0 2.83201e-12 0 0 0 
0 0 0 0 0 0 1.16947e-10 1.17073e-12 0 
0 0 0 2.49718e-08 0 0 0 8.61311e-13 7.44707e-11 
0 0 3.5582e-11 0 1.93132e-11 0 1.3979e-11 0 0 
0 0 0 0 0 0 0 0 0 
8.18031e-13 0 0 0 0 0 4.15421e-14 0 0 
0 0 0 0 5.4731e-15 0 0 0 3.12022e-14 
0 0 0 0 0 0 0 0 0 
0 0 0 0 0 0 0 0 0 
0 0 0 0 0 0 0 0 0 
0 2.01319e-10 8.22129e-11 1.14347e-10 3.72047e-11 0 0 0 6.6355e-12 
0 0 0 0 0 0 0 0 0 
2.24644e-10 0 0 6.87065e-12 0 1.04694e-10 1.3767e-10 4.47221e-11 0 
0 0 2.26081e-12 0 0 0 0 0 0 
2.51359e-11 0 0 2.27305e-12 0 3.37089e-11 0 6.63656e-11 0 
0 1.97128e-13 0 0 3.18828e-11 0 0 0 0 
6.2208e-11 0 0 0 1.56285e-10 0 4.47795e-11 0 0 
3.12155e-10 0 0 3.03087e-10 0 0 0 0 0 
0 0 0 0 0 0 0 0 2.29067e-10 
0 0 0 0 4.8822e-11 0 0 0 0 
0 0 0 0 0 0 4.4101e-11 0 1.90315e-11 
0 0 0 0 0 0 0 3.76508e-11 0 
7.08727e-11 0 0 0 0 0 0 0 9.89998e-11 
0 0 0 0 1.61874e-10 2.8359e-10 2.71635e-08 0 0 
0 1.63157e-11 3.74072e-12 0 5.52501e-12 6.3293e-11 0 5.12429e-12 0 
5.88771e-12 5.03904e-12 0 2.52141e-12 7.73274e-11 7.0526e-17 1.82833e-10 0 0 
0 0 0 0 0 4.70273e-11 1.84831e-10 0 0 
0 0 1.27287e-11 0 0 0 1.30114e-12 8.95002e-12 0 
0 0 0 0 0 0 0 0 0 
0 0 0 2.96025e-11 5.15902e-11 0 0 0 3.26557e-11 
0 0 0 0 2.93188e-11 0 0 0 0 
0 0 0 0 0 9.54637e-12 0 0 0 
0 0 0 0 0 0 0 0 0 
0 0 1.14558e-13 0 0 0 0 0 0 
0 0 0 0 0 0 0 0 0 
0 0 0 0 0 0 0 0 0 
0 0 0 0 0 0 0 0 0 
0 0 0 4.10071e-12 0 0 7.11468e-11 0 0 
1.12315e-10 2.89448e-11 3.40205e-11 0 0 0 0 0 2.03585e-10 
9.14265e-11 0 2.34369e-11 0 0 2.59532e-10 0 2.33079e-15 0 
0 0 0 0 2.68556e-08 0 0 4.25788e-11 0 
0 0 0 0 6.7313e-11 0 5.69647e-12 0 0 
0 0 0 0 0 0 0 5.86836e-13 0 
3.57824e-14 5.34925e-14 3.92365e-12 0 0 0 6.97519e-11 2.6697e-11 0 
0 0 0 0 0 0 0 0 0 
0 0 0 0 0 4.15413e-12 0 0 1.27956e-10 
2.14872e-15 1.86801e-11 1.80602e-10 1.02745e-10 0 0 0 0 0 
0 0 0 0 0 9.72582e-12 0 0 0 
0 0 0 9.44494e-11 0 0 0 0 0 
0 0 1.36391e-10 0 0 1.02009e-11 0 0 0 
0 8.40207e-11 0 0 0 0 0 1.18076e-10 0 
0 0 0 2.2462e-10 0 0 0 0 0 
0 0 0 0 0 4.92285e-11 0 0 0 
0 0 0 3.23506e-11 0 2.09939e-10 2.70742e-08 0 0 
0 0 0 0 6.13286e-11 9.55169e-11 8.54958e-11 0 0 
0 3.68784e-11 0 0 0 0 0 0 0 
0 0 0 2.61467e-11 0 0 7.69609e-13 0 1.02849e-11 
0 0 0 4.27867e-11 0 1.35192e-10 4.00771e-11 0 0 
0 1.93708e-10 0 0 0 0 0 0 0 
1.38494e-12 0 0 0 0 7.70696e-13 0 0 0 
0 0 0 0 0 0 0 0 0 
0 5.94294e-14 0 0 0 0 0 0 0 
0 0 0 0 0 0 0 0 0 
0 4.40586e-14 0 0 0 0 0 1.67634e-13 0 
0 0 0 0 0 0 0 0 0 
0 0 4.98728e-11 0 0 5.29529e-11 0 2.55164e-11 1.93815e-11 
0 0 0 0 0 0 0 0 0 
0 1.46541e-10 0 0 1.03655e-11 0 0 0 0 
0 6.51494e-11 2.59234e-10 0 0 8.34588e-11 0 8.3073e-13 5.89797e-14 
0 2.70401e-13 4.68312e-13 0 0 0 0 0 0 
9.79734e-14 1.12517e-11 0 0 0 0 0 0 0 
0 0 0 6.90583e-11 7.70407e-11 0 0 0 0 
1.72325e-10 0 0 3.039e-08 0 0 0 3.48966e-08 0 
0 0 0 1.68471e-10 0 1.02759e-10 0 7.25655e-11 1.69003e-10 
0 0 7.45021e-11 0 0 0 0 0 0 
5.70254e-11 0 0 1.71007e-12 0 0 1.2926e-11 0 0 
0 3.07688e-11 0 0 0 0 0 0 0 
2.555e-11 0 0 0 0 0 0 0 5.89222e-11 
1.72689e-12 0 0 1.66975e-11 0 3.05421e-13 0 5.1007e-11 0 
7.45753e-11 0 0 0 0 0 0 8.93634e-11 0 
0 0 0 0 0 0 1.54165e-10 1.17902e-10 0 
0 0 0 0 0 0 0 0 0 
0 0 0 0 0 7.13698e-11 6.41606e-11 0 0 
0 0 2.45239e-13 0 1.20736e-11 0 0 1.31306e-13 0 
0 3.65794e-11 0 6.38735e-11 0 0 9.45834e-11 0 5.67774e-11 
0 0 0 0 0 0 0 0 0 
0 0 0 7.19373e-11 2.45422e-11 1.0254e-10 0 0 1.41174e-10 
0 0 0 0 0 1.99124e-13 0 2.30271e-14 0 
0 0 4.86503e-13 0 0 0 0 0 0 
0 0 0 0 0 0 0 0 0 
0 0 0 0 0 0 0 0 0 
0 0 0 0 0 0 0 0 0 
0 0 0 0 0 0 0 0 0 
2.19761e-12 0 0 9.11237e-11 0 6.49419e-11 0 0 0 
0 0 0 1.10165e-10 3.71902e-11 3.88282e-11 0 9.88632e-11 0 
0 0 0 0 0 0 1.9834e-10 0 0 
0 0 0 0 0 9.54179e-12 0 0 0 
2.3598e-11 0 0 0 0 1.04606e-12 9.87794e-11 0 0 
0 0 8.28533e-11 0 5.57699e-12 0 1.00249e-11 5.13009e-13 0 
0 0 2.83521e-13 0 0 8.02594e-11 0 1.93497e-10 0 
0 0 2.38568e-10 0 0 0 0 0 0 
0 0 0 0 2.63504e-08 0 0 3.18941e-12 0 
0 0 0 0 0 0 0 0 0 
0 5.71113e-11 0 0 0 0 4.24642e-11 0 1.27377e-11 
0 0 0 0 1.49956e-11 0 0 0 0 
0 0 0 0 1.38457e-10 0 0 8.20224e-12 0 
4.97364e-11 0 0 0 0 0 0 1.9512e-11 9.30055e-11 
0 9.05101e-11 0 0 0 0 1.23365e-10 0 0 
1.03227e-10 2.49928e-08 0 0 0 1.23509e-10 4.18732e-11 0 0 
0 1.90591e-10 0 0 0 0 2.84199e-08 0 0 
6.86956e-11 2.41124e-12 0 0 0 3.23612e-11 0 0 1.60876e-12 
0 0 1.41737e-11 0 0 0 0 0 0 
0 4.13942e-11 0 0 0 1.00892e-10 5.67083e-11 0 3.13524e-11 
8.25771e-12 0 0 0 0 0 1.0713e-12 0 0 
0 0 0 1.15918e-11 0 0 1.32487e-10 0 7.89231e-11 
4.65957e-11 0 0 0 0 0 0 0 0 
0 0 0 0 0 0 0 0 0 
0 0 0 0 0 0 0 0 0 
0 0 0 0 0 0 0 0 0 
0 0 0 0 0 0 0 0 0 
2.02631e-12 0 0 0 1.0471e-14 0 0 0 0 
0 6.4888e-11 0 0 7.04147e-12 0 0 9.48956e-11 0 
3.93583e-10 0 1.47246e-10 0 2.95764e-11 0 0 0 0 
0 3.86295e-08 3.88259e-08 0 0 0 0 0 0 
0 0 6.53677e-11 1.16372e-11 0 0 0 0 0 
1.75098e-11 0 8.04251e-11 0 2.42391e-12 0 0 0 0 
2.5864e-12 0 2.52172e-11 0 0 0 0 0 0 
0 1.49373e-11 0 0 0 0 0 0 0 
0 0 0 0 3.34486e-08 0 0 2.23986e-10 0 
2.60901e-10 0 2.81171e-10 0 0 1.21951e-11 0 0 1.11468e-11 
0 0 0 0 0 0 0 0 0 
0 0 0 0 0 0 4.5204e-13 0 0 
0 7.33225e-11 0 0 0 0 0 0 0 
0 6.2648e-12 0 1.63787e-14 0 0 0 0 0 
0 0 0 1.12454e-10 3.12647e-14 0 9.16404e-12 1.67924e-10 0 
0 0 0 0 0 0 0 0 0 
0 7.3077e-11 1.2243e-11 0 1.01959e-10 5.60778e-11 0 2.13009e-10 0 
0 0 0 0 8.46997e-11 0 0 0 0 
0 0 0 0 0 0 0 0 0 
0 0 0 0 0 2.89455e-11 0 0 1.98576e-11 
0 0 0 0 2.55062e-10 0 0 1.32688e-10 0 