# vtk DataFile Version 5.1
vtk output
ASCII
DATASET STRUCTURED_POINTS
DIMENSIONS 250 250 1
SPACING 1 1 1
ORIGIN 0 0 0
POINT_DATA 62500
FIELD FieldData 6
feature_1 1 62500 float
0 0 0 0 0 0 0 0 0 
0 0 0 0 0 0 0 0 0 
0 0 0 0 0 0 0 0 0 
0 0 0 0 0 0 0 0 0 
0 0 0 0 0 0 0 0 0 
0 0 0 0 0 0 0 0 0 
0 0 0 0 0 0 0 0 0 
0 0 0 0 0 0 0 0 0 
0 0 0 0 0 0 0 0 0 
0 0 0 0 0 0 0 0 0 
0 0 0 0 0 0 0 0 0 
0 0 0 0 0 0 0 0 0 
0 0 0 0 0 0 0 0 0 
0 0 0 0 0 0 0 0 0 
0 0 0 0 0 0 0 0 0 
0 0 0 0 0 0 0 0 0 
0 0 0 0 0 0 0 0 0 
0 0 0 0 0 0 0 0 0 
0 0 0 0 0 0 0 0 0 
0 1.52455e-12 0 0 0 0 0 0 0 
0 0 0 0 0 0 0 0 0 
0 0 0 0 0 0 0 0 0 
0 0 0 0 0 0 0 0 0 
0 0 0 0 2.59987e-12 0 0 0 0 
0 0 0 0 0 0 0 0 0 
0 0 0 0 0 0 0 0 0 
0 0 0 0 0 0 0 0 0 
0 0 0 0 0 0 0 0 0 
0 0 0 0 0 8.30245e-13 0 0 0 
0 0 0 0 0 0 0 0 0 
0 0 0 0 2.25266e-13 0 0 0 0 
0 0 0 0 0 0 0 0 0 
0 0 0 0 0 0 0 0 0 
0 0 0 0 0 0 0 0 0 
0 0 0 0 0 0 0 0 0 
0 0 0 0 0 0 0 0 0 
0 0 0 0 0 0 0 0 0 
0 0 0 0 0 0 0 0 0 
0 0 0 0 0 0 0 0 0 
0 0 0 0 0 0 0 0 0 
0 0 0 0 2.43359e-13 0 0 0 0 
0 0 0 0 0 0 0 0 0 
0 0 0 0 0 0 0 0 0 
0 0 0 0 0 0 0 0 0 
0 0 0 0 0 0 0 0 0 
0 2.08126e-12 0 0 0 0 0 0 0 
5.61047e-13 0 0 0 0 0 0 0 0 
0 0 0 0 0 0 0 0 0 
0 0 0 0 0 0 0 0 0 
0 0 0 0 0 0 0 0 0 
0 0 0 0 0 0 0 0 0 
0 0 0 0 0 0 0 0 0 
0 0 0 0 0 0 0 0 0 
0 0 0 0 0 0 0 0 0 
0 0 0 0 0 0 0 0 0 
0 0 0 0 0 0 0 0 0 
0 0 0 0 0 0 0 0 0 
0 0 0 0 0 0 0 0 0 
0 0 0 0 0 0 0 0 0 
0 0 0 0 0 0 0 0 0 
1.85851e-12 0 0 0 0 0 0 0 0 
0 0 0 0 0 0 0 0 0 
0 0 0 0 0 0 0 0 0 
0 0 0 0 0 0 0 0 0 
0 0 0 0 0 0 0 0 0 
0 0 0 0 0 0 0 0 0 
0 0 0 0 0 0 0 0 0 
0 0 0 0 0 0 0 0 0 
0 0 0 0 0 0 0 0 0 
0 0 0 0 0 0 0 0 0 
0 0 0 0 0 0 0 0 0 
0 0 0 0 0 0 0 0 0 
0 0 0 0 0 0 0 0 0 
0 0 0 0 0 0 0 0 0 
0 0 0 0 0 0 0 0 0 
0 0 0 0 0 0 0 0 0 
0 0 0 0 0 0 0 0 0 
0 6.37415e-14 0 0 0 0 0 0 0 
0 0 0 0 0 0 0 0 0 
0 0 0 0 0 0 0 0 0 
0 0 0 0 0 0 0 0 0 
0 0 0 0 0 0 0 0 0 
0 0 0 0 0 0 0 0 0 
0 0 0 0 0 0 0 0 0 
0 0 0 0 0 0 0 0 0 
0 0 0 0 0 0 0 0 0 
0 0 0 0 0 0 0 0 0 
0 0 0 0 0 0 0 0 0 
0 0 0 0 0 0 7.35966e-13 0 0 
0 0 0 0 0 0 0 0 0 
0 0 0 0 0 0 0 0 0 
0 0 0 0 0 0 0 0 0 
0 0 0 0 0 0 0 3.47748e-13 0 
0 0 0 0 0 0 0 0 0 
0 0 0 0 0 0 0 0 0 
0 0 0 0 0 0 0 0 0 
0 0 0 0 0 0 0 0 0 
0 0 0 0 0 0 0 0 0 
0 0 0 0 0 0 0 0 0 
0 0 0 0 0 0 0 0 0 
0 0 0 0 0 0 0 0 0 
0 0 0 0 0 0 0 0 0 
0 0 0 0 0 0 0 0 0 
0 0 0 0 0 0 0 0 0 
0 0 0 0 0 0 0 0 0 
0 0 0 0 0 0 0 0 0 
0 0 0 0 0 0 0 0 0 
0 0 0 0 0 0 0 0 0 
0 0 0 0 0 0 0 0 0 
0 0 0 0 0 0 0 0 0 
0 0 0 0 0 0 0 0 0 
0 0 0 0 0 0 0 0 0 
0 0 0 0 0 0 0 0 0 
0 0 0 0 0 0 0 0 0 
0 0 0 0 0 0 0 0 0 
0 0 0 0 0 0 0 0 0 
0 0 0 0 0 0 0 0 0 
0 0 0 0 0 0 0 0 0 
0 0 0 0 0 0 0 0 0 
0 0 0 0 0 0 0 0 0 
0 0 0 0 0 0 0 0 0 
0 0 0 0 0 0 0 0 0 
0 0 0 0 0 0 0 0 0 
0 0 0 0 0 0 0 0 0 
0 0 0 0 0 0 0 0 0 
0 0 0 0 0 0 0 0 0 
0 0 0 0 0 0 0 0 0 
0 0 0 0 0 0 0 0 0 
0 0 0 0 0 0 0 0 0 
0 0 0 0 0 0 0 0 0 
0 0 0 0 0 0 0 0 0 
0 0 0 0 0 0 0 0 0 
0 0 0 0 1.41009e-12 0 0 0 0 
0 0 0 0 0 0 0 0 0 
0 0 0 0 0 0 0 0 0 
0 0 0 0 0 0 0 0 0 
0 0 0 0 0 0 0 0 0 
0 0 0 0 0 0 0 0 0 
0 0 0 0 0 0 0 0 0 
0 0 0 0 0 0 0 0 0 
0 0 0 0 0 0 0 0 0 
0 0 0 0 0 0 0 0 0 
0 0 0 0 0 0 0 0 0 
0 0 0 0 0 0 0 7.61448e-14 0 
0 0 0 0 0 0 0 0 0 
0 0 0 0 0 0 0 0 0 
0 0 0 0 0 0 0 0 0 
0 0 0 0 0 0 0 0 0 
0 0 0 0 0 0 0 0 0 
0 0 0 0 0 0 0 0 0 
0 0 0 0 0 0 0 0 0 
0 0 0 0 0 0 0 0 0 
0 0 0 0 0 0 0 0 0 
0 0 0 0 0 0 0 0 0 
0 0 0 0 0 0 0 2.10244e-12 0 
0 0 0 0 0 0 0 0 0 
0 0 0 0 0 0 0 0 0 
0 0 0 0 0 0 0 0 0 
0 0 0 0 0 0 0 0 0 
0 0 0 0 0 0 0 0 0 
0 0 0 0 0 0 0 0 0 
0 0 0 0 0 0 0 0 0 
0 0 0 0 0 0 0 0 0 
0 0 0 0 0 0 0 0 0 
0 0 0 0 0 0 0 0 0 
0 0 0 0 0 0 0 0 0 
0 0 0 0 0 0 0 0 0 
0 0 0 0 0 0 0 0 0 
0 0 0 0 0 0 0 0 0 
0 0 0 0 0 0 0 0 0 
0 0 0 0 0 0 0 0 0 
0 0 0 0 0 0 0 0 0 
0 0 0 0 0 0 0 0 0 
0 0 0 0 0 0 0 0 0 
0 0 0 0 0 0 0 0 0 
0 0 0 0 0 0 0 0 0 
0 0 0 0 0 0 0 0 0 
0 0 0 0 0 0 0 0 0 
0 0 0 0 0 0 0 0 0 
0 0 0 0 0 0 0 0 0 
0 0 0 0 0 0 0 0 0 
0 0 0 0 0 0 0 0 0 
0 0 0 0 0 0 0 0 0 
0 0 0 0 0 0 0 0 0 
0 0 0 0 0 0 0 0 0 
0 0 0 0 0 0 0 0 0 
0 0 0 0 0 0 0 0 0 
0 0 0 0 0 0 0 0 0 
0 0 0 0 0 0 0 0 0 
0 0 0 0 0 0 0 0 0 
0 0 0 0 0 0 0 0 0 
0 0 0 0 0 0 0 0 0 
0 0 0 8.75137e-13 0 0 0 0 0 
0 0 0 0 0 0 0 0 0 
0 0 0 0 0 0 0 0 0 
0 0 0 0 0 0 0 0 0 
0 0 0 0 0 0 0 0 0 
0 0 0 0 0 0 0 0 0 
0 0 0 0 0 0 0 0 0 
0 0 0 0 0 0 0 0 0 
0 0 0 0 0 0 0 0 0 
0 0 0 0 0 0 0 0 0 
0 0 0 0 0 0 0 0 0 
0 0 0 0 0 0 0 0 0 
0 0 0 0 0 0 0 0 0 
0 0 0 0 0 0 0 0 0 
0 0 0 0 0 0 0 0 0 
0 0 0 0 0 0 0 0 0 
0 0 0 0 0 0 0 0 0 
0 0 0 0 0 0 0 0 0 
0 0 0 0 0 0 0 0 0 
0 0 0 0 0 0 0 0 0 
0 0 0 0 0 0 0 0 0 
0 0 0 0 0 0 0 0 0 
0 0 0 0 0 0 0 0 0 
0 0 0 0 0 0 0 0 0 
0 2.03064e-12 0 0 0 0 0 0 0 
0 2.52303e-13 0 0 0 0 0 0 0 
0 0 0 0 0 0 0 0 0 
0 0 0 0 0 0 0 0 0 
0 0 0 0 0 0 0 0 0 
0 0 0 0 0 0 0 0 0 
0 0 0 0 0 0 0 0 0 
0 0 0 0 0 0 0 0 0 
0 0 0 0 0 0 0 0 0 
0 0 0 0 0 0 0 0 0 
0 0 0 0 0 0 0 0 0 
0 0 0 0 0 0 0 0 0 
0 0 0 0 0 0 0 0 0 
0 0 0 0 0 0 0 0 0 
0 0 0 0 0 0 0 0 0 
0 0 0 0 0 0 0 0 0 
0 0 0 0 0 0 0 0 0 
0 0 0 0 0 0 0 0 0 
0 0 0 0 0 0 0 0 0 
0 0 0 0 0 0 0 0 0 
0 0 0 0 0 0 0 0 0 
0 0 0 0 0 0 0 0 0 
0 0 0 0 0 0 0 0 0 
0 0 0 0 0 0 0 0 0 
0 0 0 0 0 0 0 0 0 
0 0 0 0 0 0 0 0 0 
0 0 0 0 0 0 0 0 0 
0 0 0 0 0 0 0 3.53508e-13 0 
0 0 0 0 0 0 0 0 0 
0 0 0 0 0 0 0 0 0 
0 0 0 0 0 0 0 0 0 
0 0 0 0 0 0 0 0 0 
0 0 0 0 0 0 0 0 0 
0 0 0 0 0 0 0 0 0 
0 0 0 0 0 0 0 0 0 
0 0 0 0 0 0 0 0 0 
0 0 0 0 0 0 0 0 0 
0 0 0 0 0 0 0 0 0 
0 0 0 0 0 0 0 0 0 
0 0 0 0 0 0 0 0 0 
0 0 0 0 0 0 0 0 0 
0 0 0 0 0 0 0 0 0 
0 0 0 0 0 0 0 0 0 
0 0 0 0 0 0 0 0 0 
0 0 0 0 0 0 0 0 0 
0 0 0 0 0 0 0 0 0 
0 0 0 0 0 0 3.14226e-12 0 0 
0 0 0 0 0 0 0 0 0 
0 0 0 0 0 0 0 0 0 
0 0 0 0 0 0 0 0 0 
0 0 0 0 0 0 0 0 0 
0 0 0 0 0 0 0 0 0 
0 0 0 0 0 0 0 0 0 
0 0 0 0 0 0 0 0 0 
0 0 0 0 0 0 0 0 0 
0 0 0 0 0 0 0 0 0 
0 0 0 0 0 0 0 0 0 
0 0 0 0 0 0 0 0 0 
0 0 0 0 0 0 0 0 0 
0 0 0 0 0 0 0 0 0 
0 0 0 0 0 0 0 0 0 
0 0 0 0 0 0 0 0 0 
0 0 0 0 0 0 0 0 0 
0 0 0 0 0 0 0 0 0 
0 0 0 0 0 0 0 0 0 
0 0 0 0 0 0 0 0 0 
0 0 0 0 0 0 0 0 0 
0 0 0 0 0 0 0 0 0 
0 0 0 0 0 0 0 0 0 
0 0 0 0 0 0 0 0 0 
0 0 0 0 0 0 0 0 0 
0 0 0 0 0 0 0 0 0 
0 0 0 0 0 0 0 0 0 
0 0 0 0 0 0 0 0 0 
0 0 0 0 0 0 0 0 0 
0 0 0 0 0 0 0 0 0 
0 0 0 0 0 0 0 0 0 
0 0 0 0 0 0 0 0 0 
0 0 0 0 0 0 0 0 0 
0 0 0 0 0 0 0 0 0 
0 0 0 0 0 0 0 0 0 
0 0 0 0 0 0 0 0 0 
0 0 0 0 0 0 0 0 0 
0 0 0 0 0 0 0 0 0 
0 0 0 0 0 0 0 0 0 
0 0 0 0 0 0 0 0 0 
0 0 0 0 0 0 0 0 0 
0 0 0 0 0 0 0 0 0 
0 0 0 0 0 1.51363e-12 0 0 0 
0 0 0 0 0 0 0 0 0 
0 0 0 0 0 0 0 0 0 
0 0 0 0 0 0 0 0 0 
0 0 0 0 0 0 0 0 0 
0 0 0 0 0 0 0 0 0 
0 0 0 0 0 0 0 0 0 
0 0 0 0 0 0 0 0 0 
0 0 0 0 0 0 0 0 0 
0 0 0 0 0 0 0 3.19861e-13 0 
0 0 0 0 0 0 0 0 0 
6.57633e-13 0 0 0 0 0 0 0 0 
0 0 0 0 0 0 0 0 0 
0 0 0 0 0 0 0 0 0 
0 0 0 0 0 0 0 0 0 
0 0 0 0 0 0 0 0 0 
0 0 0 0 0 0 0 0 0 
0 0 0 0 0 0 0 0 0 
0 0 0 0 0 0 0 0 0 
0 0 0 0 0 0 0 0 0 
0 0 0 0 0 0 0 0 0 
0 0 0 0 0 0 0 0 0 
0 0 0 0 0 0 0 0 0 
0 0 0 0 0 0 0 0 0 
0 0 0 0 0 0 0 0 0 
0 0 0 0 0 0 0 0 0 
0 0 0 0 0 0 0 0 0 
0 0 0 0 0 0 0 0 7.6387e-13 
0 0 0 0 0 0 0 0 0 
0 0 0 0 0 0 0 0 0 
0 0 0 0 0 0 0 0 0 
0 0 0 0 0 0 0 0 0 
0 0 0 0 0 0 0 0 0 
0 0 0 0 0 0 0 0 0 
0 0 0 0 0 0 0 0 0 
0 0 0 0 0 0 0 0 0 
0 0 0 0 0 0 0 0 0 
0 0 0 0 0 0 0 0 0 
0 0 0 0 0 0 0 0 0 
0 0 0 0 0 0 0 0 0 
0 0 0 0 0 0 0 0 0 
0 0 0 0 0 0 0 0 0 
0 0 4.03951e-12 0 0 0 0 0 0 
0 0 0 0 0 0 0 0 0 
0 0 0 0 0 0 0 0 0 
0 0 0 0 0 0 0 0 0 
0 0 0 0 0 0 0 0 0 
0 0 0 0 0 0 0 0 0 
0 0 0 0 0 0 0 0 0 
0 0 0 0 0 0 3.38587e-13 0 0 
0 0 0 0 0 0 0 0 0 
0 0 0 0 0 0 0 0 0 
0 0 0 0 0 0 0 0 0 
0 0 0 0 0 0 0 0 0 
0 0 0 0 0 0 0 0 0 
0 0 0 0 0 0 0 0 0 
0 0 0 0 0 0 0 0 0 
0 0 0 0 0 0 0 0 0 
0 0 0 0 0 0 0 0 0 
0 0 0 0 0 0 0 0 0 
0 0 0 0 0 0 0 0 0 
0 0 0 0 0 0 0 0 0 
0 0 0 0 0 0 0 0 0 
0 0 0 0 0 0 0 0 0 
0 0 0 0 0 0 0 0 0 
0 0 0 0 0 0 0 0 0 
0 0 1.72102e-14 0 0 0 0 0 0 
0 0 0 0 0 0 0 0 0 
0 0 0 0 0 0 0 0 0 
0 9.63151e-13 0 0 0 0 0 0 0 
0 0 0 0 0 0 0 0 0 
0 0 0 0 0 0 0 0 0 
0 0 0 0 0 0 0 0 0 
0 0 0 0 0 0 0 0 0 
0 0 0 0 0 0 0 0 0 
0 0 0 0 0 0 0 0 0 
0 0 0 0 0 0 0 0 0 
0 0 0 0 0 0 0 0 0 
0 0 0 0 0 0 0 0 0 
0 0 0 0 0 0 0 0 0 
0 0 0 0 0 0 0 0 0 
0 0 0 0 0 0 0 0 0 
0 0 0 0 0 0 0 0 0 
0 0 0 0 0 0 0 0 0 
0 0 0 0 0 0 0 0 0 
0 0 0 0 0 0 0 0 0 
0 0 0 0 0 0 0 0 0 
0 0 0 0 0 0 0 0 0 
0 0 0 0 0 0 0 0 0 
0 0 0 0 0 0 0 0 0 
0 0 0 0 0 0 0 0 0 
0 0 0 0 0 0 0 0 0 
0 0 0 0 0 0 0 0 0 
0 0 0 0 0 0 0 0 0 
0 0 0 0 0 0 0 0 0 
0 0 0 0 0 0 0 0 0 
0 0 0 0 0 0 0 0 0 
0 0 0 0 0 0 0 0 0 
0 0 0 0 0 0 0 0 0 
0 0 0 0 0 0 0 0 0 
0 0 0 0 0 0 0 0 0 
0 0 0 0 0 0 0 0 0 
0 0 0 0 0 0 0 0 0 
0 0 0 0 0 0 0 0 0 
0 0 0 0 0 0 0 0 0 
0 0 0 0 0 0 0 0 0 
0 0 0 0 0 0 0 0 0 
0 0 0 0 0 0 0 0 0 
0 0 0 0 0 0 0 0 0 
0 0 0 0 0 0 0 0 0 
0 0 0 0 0 0 0 0 0 
0 0 0 0 0 0 0 0 0 
0 0 0 0 0 0 0 0 0 
0 0 0 0 0 0 0 0 0 
0 0 0 0 0 0 0 0 0 
0 0 0 0 0 0 0 0 0 
0 0 0 0 0 0 0 0 0 
0 0 0 0 0 0 0 0 0 
0 2.99991e-12 0 0 0 0 0 0 0 
0 0 0 0 0 0 0 0 0 
0 3.50674e-15 0 0 0 0 0 0 0 
0 0 0 0 0 0 0 0 0 
0 0 0 0 0 0 0 0 0 
0 0 0 0 0 0 0 0 0 
0 0 0 0 0 0 0 0 8.40333e-13 
0 0 0 0 0 0 0 0 0 
0 0 0 0 0 0 0 0 0 
0 0 0 0 0 0 0 0 0 
0 0 0 0 0 0 0 0 0 
0 0 0 0 0 0 0 0 0 
0 0 0 0 0 0 0 0 0 
0 0 0 0 0 0 0 0 0 
0 0 0 0 0 0 0 0 0 
0 0 0 0 0 0 0 0 0 
0 0 0 0 0 0 0 0 0 
0 0 0 0 0 0 0 0 0 
0 0 0 0 0 0 0 0 0 
0 0 0 0 0 0 0 0 0 
0 0 0 0 0 0 0 0 0 
0 0 0 0 1.53377e-12 0 0 0 0 
0 0 0 0 0 0 0 0 0 
0 0 0 0 0 0 0 0 0 
0 0 0 0 0 0 0 0 0 
0 0 0 0 0 0 0 0 0 
0 0 0 0 0 0 0 0 0 
0 0 0 0 0 0 0 0 0 
0 0 0 0 0 0 0 0 0 
0 0 0 0 0 0 0 0 1.12138e-13 
0 0 0 0 0 0 0 0 0 
0 0 0 0 0 0 0 0 0 
0 0 0 0 0 0 0 0 0 
0 0 0 0 0 0 0 0 0 
0 0 0 0 0 0 0 0 0 
0 0 0 0 0 0 0 0 0 
0 0 0 0 0 0 0 0 0 
0 0 0 0 0 0 0 0 0 
0 0 0 0 7.93141e-12 0 0 0 0 
0 0 0 0 0 0 0 0 0 
0 0 0 0 0 0 0 0 0 
0 0 0 0 0 0 0 0 0 
0 0 0 0 0 0 0 0 0 
0 0 0 0 0 0 0 0 0 
0 0 0 0 0 0 3.58812e-12 0 0 
0 0 2.53273e-12 0 0 0 0 0 0 
0 0 1.452e-12 0 0 0 0 0 0 
0 0 0 0 0 0 0 0 0 
0 0 0 0 0 0 0 0 0 
0 0 0 0 0 0 0 0 0 
0 0 0 0 0 0 0 0 0 
0 0 0 0 0 0 0 0 0 
0 0 0 0 0 0 0 0 0 
0 0 0 0 0 0 0 0 0 
0 0 0 0 0 0 0 0 0 
0 0 0 0 0 0 0 0 0 
0 0 0 0 0 0 0 0 0 
0 0 0 0 0 0 0 0 0 
0 3.15002e-12 0 0 0 0 0 0 0 
0 0 0 0 0 0 0 0 0 
0 0 0 0 0 0 0 0 0 
0 0 0 0 0 0 0 0 0 
0 0 0 0 0 0 0 0 0 
0 0 0 0 0 0 0 0 0 
0 0 0 0 0 0 0 0 0 
0 0 0 0 0 0 0 0 2.48498e-12 
0 0 0 0 0 0 0 0 0 
0 0 0 5.89864e-12 0 0 0 0 0 
0 0 0 0 0 0 0 0 0 
0 0 0 0 0 0 0 0 0 
0 0 0 0 0 0 0 0 0 
0 0 0 0 0 0 0 0 0 
0 0 0 0 0 0 0 0 0 
0 0 0 0 0 0 0 0 0 
0 0 0 0 0 0 0 0 0 
0 0 0 0 0 0 0 0 0 
0 0 0 0 9.862e-13 0 0 0 0 
0 0 0 0 0 0 0 0 0 
0 0 0 0 0 0 0 0 0 
0 0 0 0 0 0 0 0 0 
0 0 0 0 0 0 0 0 0 
0 0 0 0 0 0 0 0 0 
0 0 0 0 0 0 0 0 0 
0 0 0 0 0 0 0 0 0 
0 0 0 0 0 0 0 0 0 
0 0 0 0 0 0 0 0 0 
0 0 0 0 0 0 0 0 0 
0 0 0 0 0 0 0 0 0 
0 0 0 3.0609e-12 0 0 0 0 0 
0 0 0 0 0 0 0 0 0 
0 0 0 0 0 0 0 0 0 
0 0 0 2.97986e-13 0 0 0 0 0 
0 0 0 1.08588e-12 0 0 0 0 0 
0 0 1.86369e-12 0 0 0 0 0 0 
0 0 0 0 0 0 0 0 0 
0 0 0 0 0 0 0 0 0 
0 0 0 0 0 0 0 0 0 
0 0 0 0 0 0 0 0 0 
0 0 0 0 0 0 0 0 0 
0 0 0 0 0 0 0 0 0 
0 0 0 0 0 0 3.98131e-13 0 0 
0 0 0 0 0 0 0 0 0 
0 0 0 0 0 0 0 0 0 
0 0 0 0 0 0 0 0 0 
0 0 0 0 0 0 0 4.41111e-13 0 
0 0 0 0 0 0 0 0 0 
0 0 0 0 0 0 0 0 0 
0 0 0 0 0 0 0 0 0 
0 0 0 0 0 0 0 0 0 
0 0 0 0 0 0 0 0 0 
0 0 0 0 0 0 0 0 0 
0 0 0 0 0 0 0 0 0 
0 0 0 0 0 0 0 0 0 
0 0 0 0 0 0 0 0 0 
0 0 0 0 0 0 0 0 0 
0 0 0 0 0 0 0 0 2.47621e-12 
0 0 0 0 0 0 0 0 0 
0 0 0 0 0 0 0 0 0 
0 0 0 0 0 0 0 3.12237e-12 0 
0 0 0 0 0 0 0 0 0 
0 0 0 5.03583e-13 0 0 0 0 0 
0 0 0 0 0 0 0 0 0 
0 0 0 0 0 4.02691e-13 0 0 0 
0 0 0 0 0 0 0 0 0 
0 0 0 0 0 0 0 0 0 
0 0 0 0 0 0 0 0 0 
0 0 0 0 0 0 0 0 0 
0 0 0 0 0 0 0 0 0 
0 0 0 0 0 0 0 0 0 
0 0 0 0 0 0 0 0 0 
0 0 0 0 0 0 0 0 0 
0 0 0 0 0 0 0 0 0 
0 0 0 0 0 0 0 0 0 
0 0 0 0 0 0 0 0 0 
0 0 0 0 0 0 0 0 0 
0 0 0 0 0 0 0 0 0 
0 0 0 0 0 0 0 0 0 
0 0 0 0 0 0 0 0 0 
0 0 0 0 0 0 0 0 0 
0 0 0 0 0 0 0 0 0 
0 0 0 0 7.32114e-14 0 0 0 0 
1.75049e-11 0 0 0 2.3366e-11 1.21561e-11 0 0 0 
0 0 0 0 0 0 0 0 0 
2.15546e-13 2.71394e-11 0 0 0 0 0 0 2.04007e-11 
0 0 0 0 0 0 0 0 0 
0 0 0 0 0 0 0 0 0 
0 0 0 0 0 0 0 0 0 
0 0 0 0 0 0 0 0 0 
0 0 0 0 0 0 0 0 0 
0 0 0 0 0 0 0 0 0 
0 0 0 0 0 0 0 0 0 
0 0 0 0 0 0 0 0 0 
0 0 0 0 0 0 0 0 0 
0 0 0 0 0 0 0 0 0 
0 0 0 0 0 0 0 0 0 
0 0 0 0 0 0 0 0 0 
0 7.38526e-12 0 0 0 0 0 0 0 
0 0 0 0 0 0 0 0 0 
0 0 0 0 0 0 0 0 0 
0 0 0 0 0 0 0 0 0 
0 0 0 0 0 0 4.44735e-13 0 0 
0 0 0 0 0 0 0 0 1.14077e-12 
0 0 0 0 0 0 0 0 0 
0 0 0 0 0 3.13152e-12 0 0 0 
0 0 0 0 0 3.41142e-12 0 0 0 
0 0 0 0 0 0 0 0 0 
0 0 0 0 0 0 0 0 0 
0 0 6.61351e-12 0 0 0 0 0 0 
0 0 0 0 0 1.66495e-11 1.69298e-11 0 0 
0 0 0 0 0 0 0 0 0 
0 0 0 0 0 0 0 0 0 
5.67844e-13 0 0 0 0 0 0 0 0 
1.83041e-11 1.1669e-12 0 0 0 2.95121e-11 0 0 0 
0 0 0 0 0 1.47095e-11 0 0 0 
0 0 0 0 0 0 0 0 0 
0 0 0 0 0 0 0 0 0 
0 0 0 0 0 0 0 0 0 
0 0 0 0 0 1.18904e-11 0 1.6277e-11 0 
0 0 0 0 0 0 0 0 0 
0 0 0 0 0 0 0 0 0 
0 0 0 0 0 0 0 0 0 
0 0 0 0 0 0 0 0 0 
0 0 0 0 0 0 0 0 0 
0 0 0 0 0 0 0 0 0 
0 0 0 0 0 0 0 2.75583e-12 0 
0 0 0 0 0 0 0 0 0 
0 0 0 0 0 0 0 0 0 
0 0 0 0 0 0 0 0 0 
0 0 0 0 0 0 0 0 0 
0 0 0 0 0 0 0 1.49532e-12 0 
0 0 0 0 0 0 0 0 0 
0 0 0 0 0 0 0 0 0 
0 0 0 0 0 0 0 0 0 
0 0 0 0 0 0 0 0 0 
0 0 0 0 0 0 0 0 0 
0 0 0 0 0 0 0 0 0 
0 0 0 0 0 1.73607e-11 0 2.23196e-11 0 
0 0 0 0 0 0 0 0 0 
0 0 0 0 2.36377e-11 0 3.03704e-11 0 0 
1.48792e-11 0 0 0 0 0 0 0 0 
2.54394e-11 0 0 0 0 0 0 0 0 
0 1.56141e-11 1.95401e-11 0 0 0 0 0 0 
0 0 0 0 0 0 0 0 0 
0 0 0 0 0 0 0 0 0 
0 0 0 0 0 0 9.475e-12 0 0 
0 0 0 5.85816e-12 0 0 0 0 0 
0 0 0 0 0 0 0 0 0 
0 0 0 0 0 0 0 0 0 
0 0 0 0 0 0 0 0 0 
0 0 0 0 0 0 0 0 0 
0 0 0 0 0 0 0 0 0 
0 0 0 0 0 0 0 0 0 
0 0 8.0411e-12 0 0 0 0 0 0 
0 0 0 0 0 0 0 0 0 
0 0 0 0 0 0 0 0 0 
0 0 0 0 0 0 0 0 0 
0 0 0 0 0 0 0 0 0 
0 0 0 0 0 0 0 0 0 
0 0 0 0 0 0 0 0 0 
0 0 0 0 2.94217e-12 0 0 0 0 
0 0 0 0 0 0 0 0 0 
0 0 0 0 0 0 0 0 0 
0 0 1.18576e-11 1.47884e-11 0 0 0 4.57451e-12 0 
0 0 0 0 0 0 0 0 0 
0 2.74214e-11 0 0 0 0 0 0 0 
0 0 1.21363e-11 0 0 0 0 0 0 
0 0 0 0 0 0 0 0 0 
0 0 0 0 0 0 0 1.41398e-11 0 
0 0 0 0 4.07147e-12 0 0 0 0 
0 2.98117e-11 0 0 0 0 0 0 0 
1.17457e-11 0 0 0 0 0 0 0 0 
0 0 0 0 0 0 0 0 0 
3.02899e-12 0 0 0 0 0 0 8.95315e-12 0 
0 0 0 0 0 0 1.25446e-11 0 0 
0 0 0 0 0 0 0 0 0 
0 0 0 0 0 0 0 0 0 
0 5.00018e-12 0 0 0 0 0 0 0 
0 0 0 0 0 0 0 0 0 
0 1.43409e-12 0 0 0 0 0 0 0 
0 0 0 0 0 0 0 0 4.16577e-12 
0 0 0 1.4082e-11 0 0 0 0 0 
0 0 0 0 0 0 0 0 0 
0 0 0 0 0 0 0 0 0 
0 0 0 0 0 0 0 0 0 
0 0 0 0 0 0 0 0 0 
0 0 0 0 0 0 0 0 0 
0 0 0 0 0 0 0 0 0 
0 0 0 0 0 0 0 0 0 
0 0 0 0 0 0 0 0 0 
0 0 4.33139e-12 0 0 0 0 0 0 
0 0 0 0 0 0 0 0 0 
0 0 1.18001e-11 9.48225e-12 0 1.62565e-11 0 0 0 
4.25704e-11 0 4.07952e-11 0 0 0 0 0 0 
2.50384e-11 0 0 0 0 0 0 0 0 
0 2.76451e-11 0 0 0 0 0 0 0 
0 0 0 0 0 0 0 0 0 
0 0 0 0 0 0 0 0 0 
4.06826e-11 0 0 7.65387e-12 0 1.49112e-11 0 0 0 
0 0 0 0 0 0 1.18727e-11 0 0 
0 0 0 0 0 0 0 0 0 
2.96182e-11 0 0 0 0 0 0 0 0 
0 0 0 0 0 0 0 0 0 
0 0 0 0 0 0 1.32221e-11 0 0 
0 0 0 0 0 0 0 0 0 
0 0 0 0 0 0 0 0 0 
0 0 0 0 0 0 0 0 0 
0 0 3.92313e-12 0 0 0 0 0 0 
0 0 0 5.95075e-12 0 0 0 0 0 
0 0 0 0 0 0 0 0 0 
4.77113e-12 0 0 0 0 0 0 0 0 
0 0 0 0 0 0 0 0 0 
0 0 0 0 0 0 0 0 0 
0 0 0 0 0 0 0 0 0 
0 0 0 0 0 0 0 0 0 
0 0 0 0 0 0 0 0 0 
0 0 0 0 0 0 0 0 0 
0 0 0 0 0 0 9.17019e-12 0 0 
2.67056e-11 0 3.50992e-11 0 0 0 0 0 0 
0 0 0 0 0 0 0 0 0 
0 0 0 0 2.19482e-11 0 3.02002e-11 0 0 
2.14802e-11 2.60165e-11 0 0 0 4.20826e-11 0 0 0 
0 0 0 0 0 0 0 0 0 
0 0 0 2.00542e-11 7.17171e-11 0 0 3.2481e-11 0 
5.02513e-11 0 0 0 0 0 0 0 0 
0 3.67361e-11 0 0 0 0 0 0 0 
0 0 0 0 7.57861e-12 0 0 0 1.4837e-11 
0 0 0 0 0 0 0 0 0 
0 0 0 0 0 0 0 0 0 
0 0 0 6.77096e-11 2.32835e-11 0 0 0 0 
0 0 0 0 1.22206e-12 0 0 0 0 
0 1.13595e-11 0 0 0 0 0 0 0 
0 0 1.46165e-11 0 0 0 0 0 0 
0 0 0 0 0 0 0 0 0 
0 0 0 0 0 0 0 0 0 
0 0 0 0 0 0 0 0 0 
0 0 0 0 0 0 0 0 3.03099e-11 
0 0 0 0 0 0 0 0 0 
0 0 0 0 0 0 0 0 0 
0 0 0 0 0 0 0 4.58546e-13 0 
0 0 0 0 0 0 0 6.77255e-13 0 
0 0 0 0 0 0 0 0 0 
0 0 0 0 0 0 0 0 0 
0 0 0 0 0 0 0 0 0 
0 0 0 0 0 0 0 0 0 
0 0 0 0 0 0 0 0 0 
2.90871e-11 0 0 0 5.93794e-11 0 0 0 0 
0 0 0 0 0 0 0 0 0 
0 0 1.17807e-11 2.37494e-11 0 0 0 0 0 
0 0 0 0 2.70326e-11 0 0 0 0 
0 0 0 0 0 0 0 0 7.70549e-12 
1.94524e-11 0 6.67141e-11 9.71842e-11 0 0 0 0 0 
0 0 0 0 0 0 0 0 0 
4.75327e-11 5.38758e-11 0 0 6.28451e-11 0 2.33097e-11 0 0 
3.95677e-11 0 0 0 0 0 0 0 0 
0 0 0 0 2.57679e-11 0 0 0 0 
0 8.05881e-12 0 0 0 0 0 0 0 
0 0 0 0 5.58885e-11 0 0 1.15439e-11 0 
9.35711e-12 0 0 1.93349e-11 0 0 0 0 0 
0 0 0 0 0 0 0 0 0 
0 1.14599e-11 3.92056e-12 0 0 0 0 0 0 
0 2.34854e-11 0 0 0 0 0 0 0 
0 0 0 0 0 0 0 0 0 
0 0 0 0 0 0 0 8.29458e-12 0 
0 1.53776e-11 0 0 0 0 0 0 0 
0 0 0 0 1.06542e-11 0 0 0 0 
0 0 2.46871e-12 0 0 0 0 0 0 
0 0 0 0 0 0 0 0 0 
9.69207e-13 0 0 0 0 0 0 0 0 
0 0 0 0 0 0 0 0 0 
0 0 0 0 0 0 0 0 0 
0 0 0 0 0 0 0 0 0 
0 0 0 0 0 1.2588e-11 0 0 0 
0 0 0 0 1.05191e-11 0 0 0 0 
0 0 4.73972e-11 0 0 0 0 5.41075e-11 0 
0 0 0 0 0 2.43018e-11 1.29704e-12 0 0 
0 0 0 0 8.42329e-11 0 2.12423e-10 0 0 
0 0 5.65343e-11 3.56457e-11 2.31976e-11 0 0 2.72954e-11 0 
0 0 0 0 0 1.32116e-11 0 0 7.28878e-11 
0 0 0 0 0 0 8.24451e-11 0 0 
0 0 0 0 7.5788e-11 0 0 5.61119e-11 0 
0 0 0 0 0 2.21189e-11 0 0 0 
3.64669e-11 0 0 0 0 0 1.89436e-11 0 0 
0 0 0 0 0 0 0 0 0 
0 0 0 0 8.85908e-11 0 1.40759e-10 0 0 
0 3.70098e-11 0 0 0 0 3.2499e-11 0 0 
6.30143e-11 0 4.96467e-11 0 0 2.95675e-11 0 0 0 
0 0 0 0 1.90511e-11 0 0 0 0 
0 0 1.97709e-11 2.80233e-11 0 0 0 0 0 
0 0 0 0 0 0 0 0 0 
0 0 0 0 0 0 0 0 0 
0 0 0 0 0 0 0 0 0 
0 0 2.02255e-11 7.44032e-12 0 0 0 3.37914e-11 0 
0 0 0 0 0 0 0 0 0 
0 0 0 0 0 0 0 0 0 
0 0 0 0 0 0 0 0 0 
0 0 0 0 0 0 0 0 0 
0 0 0 0 0 0 0 0 0 
0 0 0 0 0 0 0 0 0 
0 0 0 0 0 0 0 4.24204e-11 0 
0 0 0 0 1.12403e-11 7.59104e-12 0 0 0 
0 0 0 0 0 5.00495e-11 0 0 0 
0 2.49455e-10 0 0 6.3881e-11 0 2.12503e-12 0 0 
5.98397e-12 0 0 2.06668e-11 0 0 0 5.30304e-12 0 
0 0 0 2.08427e-10 2.4233e-08 0 0 0 4.81808e-11 
0 2.36535e-11 0 0 0 0 0 0 0 
0 0 0 0 2.4712e-10 0 0 0 4.17025e-11 
0 1.87253e-11 0 2.4811e-11 0 0 0 0 6.36527e-11 
0 0 1.27304e-11 0 0 0 0 0 0 
0 0 0 0 0 0 0 0 4.14862e-11 
0 0 0 0 1.39504e-11 0 0 0 0 
0 0 5.39231e-11 0 0 0 0 0 0 
0 0 6.4727e-11 7.31771e-11 0 0 0 0 0 
1.30367e-10 1.86551e-11 0 0 0 9.05075e-11 5.27175e-11 0 0 
0 0 0 0 0 0 0 0 0 
0 1.64531e-11 0 0 0 0 0 0 0 
1.92763e-11 0 0 0 0 2.94846e-11 0 0 0 
0 0 0 0 0 0 0 0 0 
0 0 0 0 0 0 0 9.62397e-12 0 
0 0 2.22556e-11 0 4.13178e-13 0 0 0 0 
0 0 0 6.9461e-11 0 3.87161e-11 0 0 0 
0 0 0 0 0 0 0 0 0 
0 0 0 0 0 0 0 0 0 
0 0 0 0 0 0 0 0 0 
0 0 0 0 0 0 0 0 0 
0 0 0 0 0 0 0 0 0 
0 0 0 0 0 0 0 0 0 
0 0 0 0 1.42877e-11 1.11273e-11 0 0 5.86207e-11 
0 0 0 4.90891e-11 6.05139e-12 3.03825e-11 0 0 0 
0 0 0 0 0 0 0 0 0 
0 3.63862e-11 0 8.34181e-13 0 2.55007e-11 7.25945e-11 0 7.37051e-12 
0 9.04712e-12 0 0 4.57152e-12 1.87203e-11 4.62108e-11 0 0 
0 0 0 0 0 0 5.20512e-11 0 2.52216e-11 
0 0 0 0 0 0 0 1.91013e-11 6.26278e-11 
2.90568e-11 1.3902e-10 2.5331e-08 0 0 0 0 0 0 
1.67905e-11 0 0 0 2.63079e-08 0 0 1.30073e-10 0 
0 5.20692e-12 5.37762e-11 0 2.07418e-11 1.03616e-10 1.38841e-10 0 0 
0 0 0 5.02049e-11 3.27728e-11 1.39794e-11 0 0 0 
0 0 0 1.71309e-11 0 5.78055e-13 0 0 0 
1.03888e-11 0 1.19144e-10 6.01335e-11 0 0 0 0 0 
0 0 0 2.5088e-08 0 0 0 2.58811e-11 0 
8.8501e-11 0 0 1.83344e-10 5.30609e-11 0 0 5.72004e-11 8.07309e-11 
0 0 3.5901e-11 0 0 3.49522e-11 0 0 0 
0 4.64107e-11 0 0 2.60891e-11 0 0 0 0 
0 0 0 0 0 0 0 2.87382e-11 0 
0 0 0 0 0 0 0 0 0 
0 0 0 0 0 0 0 0 0 
0 0 0 0 0 0 0 0 1.1478e-11 
0 0 0 0 0 0 0 0 0 
0 0 2.08253e-11 0 0 0 0 0 0 
0 0 0 0 0 0 0 0 0 
0 0 0 0 0 0 0 0 0 
0 0 0 0 0 0 0 0 0 
0 0 0 0 0 0 0 0 0 
0 0 0 0 0 0 0 0 0 
1.13746e-11 0 0 0 0 8.00967e-11 8.57065e-11 0 0 
0 2.08453e-11 0 0 0 0 0 0 0 
0 0 0 0 0 1.68216e-11 0 0 0 
0 0 0 0 0 0 3.83985e-11 0 0 
0 0 0 0 1.08176e-11 0 8.46431e-11 8.95026e-11 0 
0 0 1.0625e-10 7.90364e-11 0 0 0 0 0 
0 0 0 0 0 4.22353e-11 0 0 0 
1.36694e-10 0 0 0 1.40871e-10 0 0 0 0 
2.67827e-11 0 1.79763e-10 0 0 0 0 0 5.97293e-11 
2.97924e-11 0 7.54611e-11 1.89937e-11 0 0 2.45379e-08 0 0 
3.49621e-11 0 0 0 0 1.48948e-11 2.564e-11 0 0 
0 0 4.77935e-11 0 0 9.17451e-11 7.53677e-11 0 0 
1.03908e-10 7.72217e-11 3.25901e-11 0 0 0 0 0 1.45002e-10 
0 0 0 3.06645e-11 0 1.77597e-10 0 0 0 
1.13555e-10 0 0 0 5.71052e-11 6.91647e-11 0 1.16403e-11 0 
0 0 1.21507e-11 2.89606e-11 0 0 0 0 0 
0 0 0 0 0 3.0714e-11 0 8.51152e-11 0 
0 0 5.56329e-11 0 3.15511e-11 0 0 0 0 
0 0 0 0 0 0 0 0 0 
0 1.53506e-11 0 0 0 0 0 2.24252e-11 0 
0 0 9.84871e-12 9.40888e-11 1.80115e-11 0 0 0 0 
0 5.29568e-11 0 3.36537e-11 3.07971e-11 0 0 0 1.87443e-11 
0 1.98709e-11 0 0 0 0 0 0 0 
0 0 0 0 0 0 0 0 0 
0 0 0 0 0 0 0 0 0 
0 0 0 0 0 0 0 0 0 
0 0 0 0 0 0 0 0 0 
0 0 0 0 0 0 0 0 0 
0 0 0 6.1832e-11 0 0 0 0 0 
0 0 0 5.01627e-11 5.22502e-11 0 0 0 0 
0 2.61656e-08 0 2.53408e-10 0 0 2.67693e-12 0 0 
0 1.23647e-10 0 0 0 0 0 0 0 
2.7362e-11 0 0 0 0 2.6362e-11 5.96877e-11 0 0 
0 0 0 0 5.02057e-12 0 0 0 0 
0 0 0 0 0 0 5.00234e-11 0 0 
0 0 9.61336e-11 0 3.64213e-11 0 0 0 0 
0 0 0 0 0 0 5.19374e-11 7.75761e-12 0 
0 1.25371e-10 0 0 0 0 3.76668e-10 0 0 
0 0 0 0 0 0 0 1.07563e-11 0 
0 0 0 0 0 2.21429e-10 0 0 6.49442e-11 
0 2.84592e-12 0 4.58125e-11 5.40919e-11 3.3276e-11 0 0 0 
1.30823e-10 0 0 0 0 0 2.71579e-08 2.68283e-10 0 
0 0 1.25807e-10 0 0 9.00398e-11 0 0 0 
1.15248e-11 0 0 0 0 1.08557e-11 0 0 0 
0 5.2221e-11 1.31742e-10 0 0 0 0 3.96579e-11 5.85412e-11 
0 0 0 0 0 0 0 7.90086e-12 0 
0 0 0 0 3.84504e-12 0 0 0 0 
0 0 0 0 3.31277e-11 0 0 0 0 
1.25033e-12 0 6.99524e-11 0 0 0 0 0 0 
0 0 0 5.24963e-11 0 0 0 0 0 
0 0 9.24209e-12 0 0 0 0 0 0 
0 0 0 0 0 0 0 0 0 
0 0 0 0 0 0 0 0 0 
0 0 0 0 0 0 0 0 0 
0 0 0 0 0 0 0 0 0 
0 0 1.18176e-11 0 0 0 0 4.4171e-11 0 
0 6.93605e-11 0 0 2.46144e-08 2.65091e-12 3.9084e-11 0 0 
3.98151e-11 0 3.33527e-11 0 0 0 0 0 0 
3.69931e-10 0 0 0 0 1.56849e-11 1.43939e-10 0 0 
1.53053e-10 0 0 0 8.48279e-11 9.46579e-12 0 0 0 
4.39607e-12 0 4.41656e-11 1.71776e-11 0 0 3.87815e-11 0 0 
0 0 0 1.82536e-11 0 2.92554e-11 0 2.66374e-11 0 
0 0 0 0 0 2.59182e-10 0 0 0 
0 2.75178e-11 7.02879e-11 9.39889e-11 0 0 1.6723e-10 0 0 
4.6434e-11 0 0 0 0 0 1.07783e-10 1.01004e-10 0 
1.45465e-10 0 1.63743e-10 0 0 0 0 5.91764e-11 0 
0 0 2.24375e-11 0 0 0 0 0 3.63729e-12 
4.52049e-11 0 0 2.43609e-08 1.64632e-10 0 1.07303e-10 0 0 
0 0 0 0 0 1.0773e-10 0 0 0 
2.62328e-12 1.10445e-11 0 0 0 1.84865e-10 0 0 2.04743e-10 
0 0 0 0 0 0 8.00714e-11 0 3.43881e-11 
0 0 0 0 0 0 0 0 1.21803e-10 
0 0 0 6.38227e-11 1.64916e-10 0 0 0 0 
0 0 0 0 0 0 0 1.4042e-11 0 
0 0 0 0 0 0 0 0 8.83604e-12 
0 0 0 0 0 0 1.25237e-10 0 8.52488e-11 
0 0 0 2.48163e-08 0 0 0 0 6.48267e-11 
0 0 4.06026e-11 0 1.95577e-11 0 1.06879e-11 0 0 
0 8.87862e-12 0 0 0 0 0 0 0 
0 0 0 0 0 0 0 0 0 
0 0 0 0 0 0 0 0 0 
0 0 0 0 0 0 0 0 0 
0 0 0 0 0 0 0 0 0 
0 0 0 0 0 0 0 0 7.66288e-12 
0 1.86161e-10 8.69573e-11 1.23479e-10 3.37683e-11 0 0 0 0 
0 0 0 0 0 0 0 8.33827e-13 0 
2.28788e-10 0 0 8.79904e-12 0 1.10851e-10 1.46045e-10 4.93032e-11 0 
0 0 0 0 0 0 0 0 0 
2.70015e-11 0 0 0 0 3.82782e-11 0 7.26919e-11 0 
0 0 0 0 2.31713e-11 0 0 2.02491e-11 0 
6.84805e-11 0 0 0 1.61791e-10 0 4.13369e-11 0 0 
2.9557e-10 0 0 3.03484e-10 0 0 0 0 0 
0 0 0 4.09809e-11 0 6.14237e-11 0 0 2.33064e-10 
0 0 0 0 5.30274e-11 2.83551e-12 0 0 0 
0 0 0 0 0 0 0 0 1.76659e-11 
0 0 0 0 1.01224e-10 0 0 4.59184e-11 0 
6.78214e-11 0 0 3.35862e-11 0 0 0 0 1.10842e-10 
0 0 0 0 1.58954e-10 2.86461e-10 2.6953e-08 0 0 
0 9.08952e-12 0 0 0 6.27936e-11 0 0 0 
0 5.94198e-12 0 3.94948e-13 7.68184e-11 0 1.75571e-10 8.13254e-11 0 
0 0 0 0 0 5.00901e-11 0 0 0 
0 0 0 0 0 0 0 0 0 
0 7.56409e-13 0 0 0 0 1.72143e-11 0 0 
0 0 0 2.84748e-11 5.85908e-11 0 0 1.84202e-11 3.49332e-11 
0 0 0 0 0 9.5087e-12 0 6.27139e-11 4.16797e-11 
0 0 0 0 0 4.69864e-12 0 0 0 
0 1.6642e-11 0 0 0 0 0 0 0 
0 0 0 0 0 0 0 0 0 
0 0 0 0 0 0 0 0 0 
0 0 0 0 0 0 0 0 0 
0 0 0 0 0 0 0 0 0 
0 0 0 6.08943e-13 0 0 6.85439e-11 1.9795e-11 0 
1.14548e-10 2.4556e-11 2.62479e-11 0 0 0 7.35924e-12 0 2.02287e-10 
0 0 2.97594e-11 0 0 2.84092e-10 0 0 2.21772e-10 
0 0 0 0 2.66472e-08 0 0 5.18126e-11 0 
4.42896e-11 0 0 0 3.29757e-11 0 0 0 0 
0 0 0 0 0 0 0 0 0 
0 0 5.36272e-12 0 0 6.3005e-11 6.89476e-11 3.06035e-11 0 
0 0 0 0 0 0 0 0 0 
0 0 0 0 0 0 0 0 1.27976e-10 
0 1.81911e-11 1.88688e-10 1.07039e-10 5.44582e-12 0 1.69675e-11 0 0 
0 0 0 0 0 8.04976e-12 0 0 8.19293e-12 
0 0 0 1.06844e-10 0 0 0 0 3.32663e-11 
3.37525e-11 0 1.53106e-10 0 0 1.60812e-11 0 0 0 
0 8.33994e-11 0 0 0 0 0 1.21262e-10 0 
0 0 0 2.41947e-10 0 0 0 0 0 
0 0 0 0 0 5.21896e-11 0 0 0 
0 0 0 3.00934e-11 0 0 0 0 0 
0 0 0 5.22091e-11 6.53112e-11 9.96801e-11 8.9551e-11 0 0 
0 0 0 0 0 0 0 0 0 
0 0 0 3.20213e-11 0 0 0 0 0 
0 0 0 4.50771e-11 0 1.40582e-10 4.589e-11 0 0 
0 1.9861e-10 0 0 0 0 0 0 2.09358e-12 
0 0 0 0 4.06776e-11 0 0 0 0 
0 0 0 0 0 0 0 0 0 
0 0 0 0 0 0 0 0 0 
0 0 0 0 0 0 0 0 0 
0 0 0 0 0 0 0 0 0 
0 0 0 0 0 0 0 0 0 
0 2.43845e-13 5.2714e-11 0 4.07498e-13 5.26672e-11 0 2.71593e-11 1.61658e-11 
0 0 0 0 0 0 0 0 0 
0 1.46625e-10 0 0 0 0 0 0 0 
0 7.16637e-11 2.60067e-10 0 0 9.72944e-11 0 0 0 
4.1902e-11 0 0 1.91066e-11 0 0 0 0 1.76887e-11 
0 0 0 0 0 0 3.37391e-11 0 0 
0 0 0 7.91558e-11 7.0976e-11 0 0 0 0 
1.73776e-10 0 0 3.0075e-08 0 0 0 3.45511e-08 0 
0 0 0 1.70095e-10 0 1.11351e-10 0 7.11629e-11 1.76001e-10 
1.44357e-11 2.13024e-11 8.25987e-11 0 0 0 0 6.62478e-11 0 
4.98359e-11 0 0 0 0 0 1.38139e-11 0 0 
0 0 0 0 0 0 0 0 0 
2.60009e-11 0 0 0 9.79916e-13 0 0 0 0 
0 0 0 2.17801e-11 0 0 0 6.18728e-11 0 
8.36646e-11 0 0 0 0 0 0 9.28667e-11 3.89329e-11 
0 0 0 0 0 0 1.62945e-10 0 0 
0 0 0 0 0 0 0 0 0 
0 0 0 0 0 7.47929e-11 6.14146e-11 0 0 
0 0 0 0 0 0 0 0 0 
0 3.54827e-11 0 6.07814e-11 0 0 0 0 0 
0 0 9.62039e-11 0 0 0 0 0 0 
0 0 5.02689e-11 6.92816e-11 3.23429e-11 1.06674e-10 0 5.46599e-11 1.44663e-10 
0 0 0 0 0 0 0 0 0 
0 0 0 0 0 0 0 0 0 
0 0 0 0 0 0 0 0 0 
0 0 0 0 0 0 0 0 0 
0 0 0 0 0 0 0 0 0 
0 0 0 0 0 0 0 0 0 
0 3.71529e-11 0 9.53158e-11 0 6.48448e-11 0 0 0 
0 0 0 1.19003e-10 3.73831e-11 4.24713e-11 2.25156e-11 9.99851e-11 0 
0 0 0 0 0 0 0 0 0 
0 0 0 0 0 1.14965e-11 0 0 0 
0 0 0 0 0 0 1.06371e-10 0 0 
0 0 7.79873e-11 0 0 0 3.79705e-13 0 0 
0 0 0 0 0 8.03203e-11 0 1.86753e-10 0 
0 0 2.56752e-10 0 0 0 0 0 0 
0 0 0 0 2.61382e-08 0 0 0 0 
0 0 0 0 0 0 0 0 0 
0 0 0 0 0 0 0 0 1.65098e-11 
0 0 0 0 2.00802e-11 0 0 0 6.68062e-11 
0 1.21321e-11 0 0 1.38448e-10 0 0 0 0 
5.78706e-11 0 0 0 0 0 1.1334e-10 0 8.37726e-11 
6.41716e-11 9.56754e-11 0 0 0 0 1.20223e-10 0 0 
1.09055e-10 2.48404e-08 0 0 0 0 5.02753e-11 0 0 
0 1.92936e-10 0 0 0 0 2.8191e-08 0 0 
6.61456e-11 0 0 0 0 0 0 0 0 
0 0 0 0 0 0 0 0 0 
0 4.25983e-11 0 0 0 1.06272e-10 5.5218e-11 0 0 
1.32217e-11 0 0 0 0 0 0 0 0 
0 0 0 0 0 0 0 0 7.68641e-11 
4.67859e-11 0 0 0 0 0 0 0 0 
0 0 0 0 0 0 0 0 0 
0 0 0 0 0 0 0 0 0 
0 0 0 0 0 0 0 0 0 
0 0 0 0 0 0 0 0 0 
0 0 0 0 0 0 1.88755e-11 0 0 
0 6.04254e-11 0 0 0 0 0 9.45133e-11 0 
4.08561e-10 0 0 0 3.24534e-11 8.18554e-11 0 0 0 
0 3.8322e-08 3.85178e-08 0 0 0 3.08099e-11 0 0 
0 0 6.95527e-11 1.29688e-12 0 0 0 0 0 
0 0 0 0 0 4.07318e-11 0 0 0 
0 0 2.58237e-11 0 0 0 0 0 0 
0 1.88692e-11 0 0 4.73517e-12 0 0 0 0 
0 0 0 0 3.31174e-08 0 0 2.22636e-10 0 
2.69484e-10 0 2.79757e-10 0 0 1.12965e-11 0 0 6.61797e-12 
0 0 0 0 0 5.10679e-11 0 0 0 
0 0 0 0 0 0 0 0 0 
0 8.3265e-11 0 0 0 0 0 0 0 
0 1.27518e-11 0 0 0 0 0 0 0 
0 0 0 1.19031e-10 0 0 0 1.68227e-10 0 
0 1.21478e-11 0 0 0 0 0 0 0 
0 7.55876e-11 6.11351e-12 0 1.03398e-10 5.91097e-11 0 2.22582e-10 0 
0 0 0 0 9.49098e-11 0 0 0 2.88042e-11 
0 0 0 0 0 0 0 0 0 
0 0 0 0 1.76122e-11 2.07378e-11 0 0 1.68566e-11 
0 0 0 0 2.6497e-10 0 0 1.52216e-10 0 
4.28266e-11 1.29431e-10 0 0 0 1.15758e-10 2.29185e-10 0 0 
0 0 0 0 0 0 0 0 2.05956e-11 
0 0 0 0 1.5358e-11 5.57346e-12 0 0 0 
0 0 0 0 0 0 0 0 0 
0 0 0 0 0 0 0 0 0 
0 0 0 0 0 0 0 0 0 
0 0 0 0 0 0 0 0 3.53652e-12 
0 0 0 0 2.01939e-11 0 0 0 0 
0 0 6.51066e-11 0 0 0 0 0 0 
0 1.51945e-11 0 0 4.77222e-11 0 8.22295e-11 0 0 
0 0 2.33439e-10 2.39468e-10 0 9.38354e-11 1.06546e-10 0 0 
0 0 3.49617e-11 0 0 0 0 0 0 
1.65104e-12 0 0 9.25794e-11 0 1.17278e-10 0 0 0 
0 0 0 0 0 0 0 0 0 
0 0 0 0 0 0 1.0586e-11 0 2.52253e-11 
0 4.99422e-10 0 0 0 6.55581e-11 0 2.12763e-11 0 
5.42609e-11 0 0 0 0 0 7.88773e-11 0 0 
0 9.5311e-11 0 0 5.07265e-11 0 0 4.45544e-11 0 
0 0 0 0 0 3.0284e-11 0 0 0 
0 0 0 0 5.15906e-12 0 0 0 0 
0 0 0 0 0 0 0 0 0 
0 3.75371e-11 5.02337e-11 0 0 0 0 0 0 
3.73583e-11 0 0 8.79903e-11 0 0 0 0 0 
0 0 0 0 0 2.67381e-11 0 0 0 
6.31609e-11 0 0 2.30872e-10 0 0 0 3.81588e-11 0 
0 0 0 0 0 0 0 0 0 
0 0 0 0 0 0 0 0 0 
1.97914e-10 1.74277e-10 2.66758e-08 0 0 1.96757e-10 0 0 0 
0 0 5.82406e-11 0 0 2.58792e-11 0 0 0 
0 0 0 1.82025e-11 0 0 0 0 0 
0 0 0 0 0 0 0 0 0 
0 0 0 0 0 0 0 0 0 
0 0 0 0 0 0 0 0 0 
0 0 0 0 0 0 0 0 0 
0 0 0 0 0 0 0 0 0 
0 0 0 0 0 0 0 5.02911e-11 0 
0 1.68997e-11 0 0 0 2.66648e-08 0 3.97103e-10 1.23733e-10 
0 0 0 0 2.913e-10 3.08939e-10 0 0 0 
5.10572e-11 2.05231e-10 0 0 1.17746e-10 0 0 0 0 
0 0 0 0 0 0 0 0 0 
0 0 0 3.11012e-11 9.97434e-11 9.8368e-11 0 3.09673e-10 0 
0 2.09019e-11 0 0 0 0 6.56149e-11 0 0 
0 0 0 1.06949e-10 2.22069e-11 0 3.7325e-11 0 0 
0 0 4.13709e-11 0 1.01209e-10 1.12793e-11 1.0932e-11 0 0 
9.75529e-11 0 1.29734e-11 1.81874e-11 0 0 0 6.63676e-11 0 
0 0 0 0 0 0 0 0 0 
0 0 0 0 2.67298e-11 0 3.88802e-11 0 0 
0 0 0 0 0 0 0 0 0 
0 0 0 0 0 0 4.8358e-11 0 0 
0 0 1.26969e-10 0 0 0 0 9.90667e-12 0 
0 0 0 0 0 6.04802e-11 0 0 1.23119e-11 
0 0 0 0 0 0 0 0 1.97474e-10 
2.84688e-10 0 0 0 9.87654e-11 0 0 2.40333e-11 0 
1.9056e-11 0 0 0 0 0 0 0 0 
0 0 0 0 0 0 0 0 0 
1.16801e-10 8.44033e-11 6.9503e-11 0 0 0 0 0 0 
0 0 0 2.78878e-11 4.78502e-11 1.19769e-10 0 3.09418e-08 0 
0 0 0 0 0 0 0 0 0 
0 0 0 0 0 0 0 0 0 
0 0 0 0 0 0 0 0 0 
0 0 0 0 0 0 0 0 0 
0 0 0 0 0 0 0 0 0 
0 0 0 0 0 0 0 0 0 
0 0 0 0 0 0 0 2.51763e-10 4.80923e-11 
0 0 0 0 2.92115e-10 1.6237e-10 0 7.76141e-12 9.82426e-11 
0 3.74866e-11 0 1.95661e-10 0 0 0 0 0 
3.61201e-11 0 0 0 0 0 0 0 0 
0 0 0 0 0 0 0 1.30304e-10 0 
0 1.34449e-10 0 0 0 0 6.54546e-11 0 2.60362e-11 
9.25629e-12 0 0 5.67161e-11 1.54456e-11 4.02809e-11 0 0 0 
0 1.33141e-11 0 0 0 5.06176e-11 2.16129e-10 2.19359e-11 0 
0 0 0 2.10305e-11 0 0 0 2.04956e-11 0 
0 0 0 0 0 0 0 0 0 
0 6.1565e-11 1.36115e-10 0 0 0 0 0 2.27651e-11 
1.40977e-11 0 5.75562e-11 0 0 0 0 0 0 
1.26117e-10 0 2.65583e-13 0 0 0 0 0 1.02207e-10 
0 0 0 0 0 0 0 0 0 
0 0 0 0 0 0 4.29723e-11 8.37315e-11 0 
1.94373e-11 1.09964e-10 0 0 0 0 0 0 0 
1.02998e-10 0 0 0 0 0 0 0 0 
0 2.63589e-08 0 0 0 0 0 5.52848e-11 0 
0 0 0 0 0 0 0 0 0 
2.22004e-11 0 0 0 1.22808e-10 0 0 0 3.31512e-10 
0 0 0 1.45048e-10 0 0 0 0 0 
0 0 8.21571e-11 0 0 0 0 0 0 
0 0 0 4.77911e-11 0 0 0 0 0 
0 0 0 0 0 0 0 0 0 
0 0 0 0 0 0 0 0 0 
0 0 0 0 0 0 0 0 0 
0 0 0 0 0 0 0 0 0 
0 0 0 0 0 9.2247e-12 0 0 0 
0 0 0 0 0 0 1.36634e-10 0 0 
0 8.15783e-11 8.77746e-11 0 0 0 0 0 0 