# vtk DataFile Version 5.1
vtk output
ASCII
DATASET STRUCTURED_POINTS
DIMENSIONS 250 250 1
SPACING 1 1 1
ORIGIN 0 0 0
POINT_DATA 62500
FIELD FieldData 6
feature_1 1 62500 float
0 0 0 0 0 0 0 0 0 
0 0 0 0 0 0 0 0 0 
0 0 0 0 0 0 0 0 0 
0 0 0 0 0 0 0 0 0 
0 0 0 0 0 0 0 0 0 
0 0 0 0 0 0 0 0 0 
0 0 0 0 0 0 0 0 0 
0 0 0 0 0 0 0 0 0 
0 0 0 0 0 0 0 0 0 
0 0 0 0 0 0 0 0 0 
0 0 0 0 0 0 0 0 0 
0 0 0 0 0 0 0 0 0 
0 0 0 0 0 0 0 0 0 
0 0 0 0 0 0 0 0 0 
0 0 0 0 0 0 0 0 0 
0 0 0 0 0 0 0 0 0 
0 0 0 0 0 0 0 0 0 
0 0 0 0 0 0 0 0 0 
0 0 0 0 0 0 0 0 0 
0 0 0 0 0 0 0 0 0 
0 0 0 0 0 0 0 0 0 
0 0 0 0 0 0 0 0 0 
0 0 0 0 0 0 0 0 0 
0 0 0 0 0 0 0 0 0 
0 0 0 0 0 0 0 0 0 
0 0 0 0 0 0 0 0 0 
0 0 0 0 0 0 0 0 0 
0 0 0 0 0 0 0 0 0 
0 0 0 0 0 0 0 0 0 
0 0 0 0 0 0 0 0 0 
0 0 0 0 0 0 0 0 0 
0 0 0 0 0 0 0 1.2176e-12 0 
0 0 0 0 0 0 0 0 0 
0 0 0 0 0 0 0 0 0 
0 0 0 0 0 0 0 0 0 
0 0 0 0 0 0 0 0 0 
0 0 0 0 0 0 0 0 0 
0 0 0 0 0 0 0 0 0 
0 0 0 0 0 0 0 0 0 
0 0 0 0 0 0 0 0 0 
0 0 0 0 0 0 0 0 0 
0 0 0 0 0 0 0 0 0 
0 0 0 0 0 0 0 0 0 
0 0 0 0 0 0 0 0 0 
0 0 0 0 0 0 0 0 0 
0 0 0 0 0 0 0 0 0 
3.3237e-12 0 0 0 0 0 0 0 0 
0 0 0 0 0 0 0 0 0 
0 0 0 0 0 0 0 0 0 
0 0 0 0 0 0 0 0 0 
0 0 0 0 0 0 0 0 0 
0 0 0 0 0 0 0 0 0 
0 0 0 0 0 0 0 0 0 
0 0 0 0 0 0 0 0 0 
0 0 0 0 0 0 0 0 0 
0 0 0 0 0 0 0 0 0 
0 0 0 0 0 0 0 0 0 
0 0 0 0 0 9.63571e-13 0 0 0 
0 0 0 0 0 0 0 0 0 
0 0 0 0 0 0 0 0 0 
0 0 0 0 0 0 0 0 0 
0 0 0 0 0 0 0 0 0 
0 0 0 0 0 0 0 0 0 
0 0 0 0 0 0 0 0 0 
0 0 0 0 0 0 0 0 0 
0 0 0 0 0 0 0 0 0 
0 0 0 0 0 0 0 0 0 
0 0 0 0 0 0 0 0 0 
0 0 0 0 0 0 0 0 0 
0 0 0 0 0 0 0 0 0 
0 0 0 0 0 0 0 0 0 
0 0 0 0 0 0 0 0 0 
0 0 0 0 0 0 0 0 0 
0 0 0 0 0 0 0 0 0 
0 0 0 0 0 0 0 0 0 
0 0 0 2.07894e-13 0 0 0 0 0 
0 0 0 0 0 0 0 0 0 
0 0 0 0 0 0 0 0 0 
0 0 0 0 0 0 0 0 0 
0 0 0 0 0 0 0 0 0 
0 0 0 0 0 0 0 0 0 
0 0 0 0 0 0 0 0 0 
0 0 0 0 0 0 0 0 0 
0 0 0 0 0 0 0 0 0 
0 0 0 0 0 0 0 0 0 
0 0 0 0 0 0 0 0 0 
0 0 0 0 0 0 0 0 0 
0 0 0 0 0 0 0 0 0 
0 0 0 0 0 0 0 0 0 
0 0 0 0 0 0 0 0 0 
0 0 0 0 0 0 0 0 0 
0 0 0 0 0 0 0 0 0 
0 0 0 0 0 0 0 0 0 
0 0 0 0 0 0 0 0 0 
0 0 0 0 0 0 0 0 0 
0 0 0 0 0 0 0 0 0 
0 0 0 0 0 0 0 0 0 
0 0 0 0 0 0 0 0 0 
0 0 0 0 0 0 0 0 0 
0 0 0 0 0 0 0 0 0 
0 0 0 0 0 0 0 0 0 
0 0 0 0 0 0 0 0 0 
0 0 0 0 0 0 0 0 0 
0 0 1.2666e-12 0 0 0 0 0 0 
0 0 0 0 0 0 0 0 0 
0 0 0 0 0 0 0 0 0 
0 0 0 0 0 0 0 0 4.76657e-13 
0 0 0 0 0 0 0 0 0 
0 0 0 0 0 0 0 0 0 
0 0 0 0 0 0 0 0 0 
0 0 0 0 0 0 0 0 0 
0 0 0 0 0 0 0 0 0 
0 0 0 0 0 0 0 0 0 
0 0 0 0 0 0 0 0 0 
0 0 0 0 0 0 0 0 0 
0 0 0 0 0 0 0 0 0 
0 0 0 0 0 0 0 0 0 
0 0 0 0 0 0 0 0 0 
0 0 0 0 0 0 0 0 0 
0 1.69784e-12 0 0 0 0 0 0 0 
0 0 0 0 0 0 0 0 0 
0 0 0 0 0 0 0 0 0 
0 0 0 0 0 0 0 0 0 
0 0 0 0 0 0 0 0 0 
0 0 0 0 0 0 0 0 0 
0 0 0 0 0 0 0 0 0 
0 0 0 0 0 0 0 0 0 
0 0 0 0 0 0 0 0 0 
0 0 0 0 0 0 0 0 0 
0 0 0 0 0 0 0 0 0 
0 0 0 0 0 0 0 0 0 
0 0 0 0 0 0 0 0 0 
0 0 0 0 0 0 0 0 0 
0 0 0 0 0 0 0 0 0 
0 0 0 0 0 0 0 0 0 
0 0 0 0 0 0 0 0 0 
0 0 0 0 0 0 0 0 0 
0 0 0 0 0 0 0 0 0 
0 0 0 0 0 0 0 0 0 
0 0 0 0 0 0 0 0 0 
0 0 0 0 0 0 0 0 0 
0 0 0 0 0 0 0 0 0 
0 0 0 0 0 0 0 0 0 
0 0 0 0 0 0 0 0 0 
0 0 0 0 0 0 0 0 0 
0 0 0 0 0 0 0 0 0 
0 0 0 0 0 0 0 0 0 
0 0 0 0 0 0 0 0 0 
0 0 0 0 0 0 0 0 0 
0 0 0 0 0 0 0 0 0 
0 0 0 0 0 0 0 0 0 
0 0 0 0 0 0 0 0 0 
0 0 0 0 0 0 0 0 0 
0 0 0 0 0 0 0 0 0 
0 0 0 0 0 0 0 0 0 
0 0 0 0 0 0 0 0 0 
0 0 0 0 0 0 0 0 0 
0 0 0 0 0 0 0 0 0 
0 0 0 0 0 0 0 0 5.41674e-13 
0 0 0 0 0 0 0 0 0 
0 0 0 0 0 0 0 0 0 
0 0 0 0 0 0 0 0 0 
0 0 0 0 0 0 0 0 0 
0 0 0 0 0 0 0 0 0 
0 0 0 0 0 0 0 0 0 
0 0 0 0 0 0 0 0 0 
0 0 0 0 0 0 0 1.3631e-12 0 
0 0 0 0 0 0 0 0 0 
0 0 0 0 0 0 0 0 0 
0 0 0 0 0 0 0 0 0 
0 0 0 0 0 0 0 0 0 
0 0 0 0 0 0 0 0 0 
0 0 0 0 0 0 0 0 0 
0 0 0 0 0 0 0 0 0 
0 0 0 0 0 0 0 0 0 
0 0 0 0 0 0 0 0 0 
0 0 0 0 0 0 0 0 0 
0 0 0 0 0 0 0 0 0 
0 0 0 0 0 0 0 0 0 
0 0 0 0 0 0 0 0 0 
0 0 0 0 0 0 0 0 0 
0 0 0 0 0 0 0 0 0 
0 0 0 0 0 0 0 0 0 
0 0 0 0 0 0 0 0 0 
0 0 0 0 0 0 0 0 0 
0 0 0 0 0 0 0 0 0 
0 0 0 0 0 0 0 0 0 
0 0 0 0 0 0 0 0 0 
0 2.74508e-13 0 0 0 0 0 0 0 
0 0 0 0 0 0 0 0 0 
0 0 0 0 0 0 0 0 0 
0 0 0 0 0 0 0 0 0 
0 0 0 0 0 0 0 0 0 
0 0 0 0 0 0 3.4264e-12 0 0 
0 0 0 0 0 0 0 0 0 
0 0 0 0 0 0 0 0 0 
0 0 0 0 0 0 0 0 0 
0 0 0 0 0 0 0 0 0 
0 0 0 0 0 0 0 0 0 
0 0 0 0 0 0 0 0 0 
0 0 0 4.05936e-13 0 0 0 0 0 
0 0 0 0 0 0 0 0 0 
0 0 0 0 0 0 0 0 0 
0 0 0 0 0 0 0 0 0 
0 0 0 0 0 0 0 0 0 
0 0 0 0 0 0 0 0 0 
0 0 0 0 0 0 0 0 0 
0 0 0 0 0 0 0 0 0 
0 0 0 0 0 0 0 0 0 
0 0 0 0 0 0 0 0 0 
0 0 0 0 0 0 0 0 0 
0 0 0 0 0 0 0 0 0 
0 0 0 0 0 0 0 0 0 
0 0 0 0 0 0 0 0 0 
0 0 0 0 0 0 0 0 0 
0 0 0 0 0 0 0 1.82333e-12 0 
0 0 0 0 0 0 0 0 0 
0 0 0 0 0 0 0 0 0 
0 0 0 0 0 0 0 0 0 
0 0 0 0 0 0 0 0 0 
0 0 0 0 0 0 0 0 0 
0 0 0 0 0 0 0 0 0 
0 0 0 0 0 0 0 0 0 
0 0 0 0 0 0 0 0 0 
0 0 0 0 0 0 0 0 0 
0 0 0 0 0 0 0 0 0 
0 0 0 0 0 0 0 0 0 
0 0 0 0 0 0 0 0 0 
0 0 0 0 0 0 0 0 0 
0 0 0 0 0 0 0 0 0 
0 0 0 0 0 0 0 0 0 
0 0 0 0 0 0 0 0 0 
0 0 0 0 0 0 0 0 0 
0 0 0 0 0 0 0 0 0 
0 0 0 0 0 0 0 0 0 
0 0 0 0 0 0 0 0 0 
0 0 0 0 0 0 0 0 0 
0 0 0 0 0 0 0 0 0 
0 0 0 0 0 0 0 0 0 
0 0 0 0 0 0 0 0 0 
0 0 0 0 0 0 0 0 0 
0 0 0 0 0 0 0 0 0 
0 0 0 0 0 0 0 0 0 
0 0 0 0 0 0 0 0 0 
0 0 0 0 0 0 0 0 0 
0 0 0 0 0 0 0 0 0 
0 0 0 0 0 0 0 0 0 
0 0 0 0 0 0 0 0 0 
0 0 0 0 0 0 0 0 0 
0 0 0 0 0 0 0 0 0 
0 0 0 0 0 0 0 0 0 
0 0 0 0 0 0 0 0 0 
0 0 0 0 0 0 0 0 0 
0 0 0 0 0 0 0 0 0 
0 0 0 0 0 0 0 0 0 
0 0 0 0 0 0 0 0 0 
0 0 0 0 0 0 0 0 0 
0 0 0 0 0 0 0 0 0 
0 0 0 0 0 0 0 0 0 
0 0 0 0 0 0 0 0 0 
0 0 0 0 0 0 0 0 0 
0 0 0 0 0 0 0 0 0 
0 0 0 0 0 0 0 0 0 
0 0 0 0 0 0 0 0 0 
0 0 0 0 0 0 0 0 0 
0 0 0 0 4.4036e-13 0 0 0 0 
0 0 0 0 0 0 0 0 0 
0 0 0 0 0 0 0 0 0 
0 0 0 0 0 0 0 0 0 
0 0 0 0 0 0 0 0 0 
0 0 0 0 0 0 0 0 0 
0 0 0 0 0 0 0 0 0 
0 0 0 0 0 0 0 0 0 
0 0 0 0 0 0 0 0 0 
0 0 0 0 0 0 0 0 0 
0 0 0 0 0 0 0 0 0 
0 0 0 0 0 0 0 0 0 
0 0 0 0 0 0 0 0 0 
0 0 0 0 0 0 0 0 0 
0 0 0 0 0 0 0 0 0 
0 0 0 0 0 0 0 0 0 
0 0 0 0 0 0 0 0 0 
0 0 0 0 0 0 0 0 0 
0 0 0 0 0 0 0 0 0 
0 0 0 0 0 0 0 0 1.39071e-13 
0 0 0 0 0 0 0 0 0 
0 0 0 0 0 0 0 0 0 
0 0 2.0835e-12 0 0 0 0 0 0 
0 0 0 0 0 0 0 0 0 
0 0 0 0 0 0 0 0 0 
0 0 0 0 0 0 0 0 0 
0 0 0 0 0 0 0 0 0 
0 0 0 0 0 0 0 0 0 
0 0 0 0 0 0 0 0 0 
0 0 0 0 0 0 0 0 0 
0 0 0 0 0 0 0 0 0 
0 0 0 0 0 0 0 0 0 
0 0 0 0 0 0 0 0 0 
0 0 0 0 0 0 0 0 0 
0 0 0 0 0 0 0 0 0 
0 0 0 0 0 0 0 2.01529e-12 0 
0 0 0 0 0 0 0 0 0 
0 0 0 0 0 0 0 0 0 
0 0 0 0 0 0 0 0 0 
0 0 0 2.05533e-12 0 0 0 0 0 
0 0 0 0 0 0 0 0 0 
0 0 0 0 0 0 0 0 0 
0 0 0 0 0 0 0 0 0 
0 0 0 0 0 0 0 0 0 
0 0 0 0 0 0 0 0 0 
0 0 0 0 0 0 0 0 0 
0 0 0 0 0 0 0 0 0 
0 0 0 0 0 0 0 0 0 
0 0 0 0 0 0 0 0 0 
0 0 0 0 0 0 0 0 0 
0 0 0 0 0 0 0 0 0 
0 0 0 0 0 0 0 0 0 
0 0 0 0 0 0 0 0 0 
0 0 0 0 0 0 0 0 0 
0 0 0 0 0 4.24755e-12 0 0 0 
0 0 0 0 0 0 0 0 0 
0 0 0 0 0 0 0 0 0 
0 0 0 0 0 0 9.36433e-13 0 0 
0 0 0 0 0 0 0 0 0 
0 0 0 0 0 0 0 0 0 
0 0 0 0 0 0 0 0 0 
0 0 0 4.95358e-12 0 0 0 0 0 
0 0 0 0 0 0 0 0 0 
0 0 0 0 0 0 0 0 0 
0 0 0 0 0 0 0 0 0 
0 0 0 0 0 0 0 0 0 
0 0 0 0 0 0 0 0 0 
0 0 0 0 0 0 0 0 0 
0 0 0 0 0 0 0 0 0 
0 0 0 0 0 0 0 0 0 
0 0 0 0 0 0 0 0 0 
0 0 0 0 0 0 0 0 0 
0 0 0 0 0 0 0 0 0 
0 0 0 0 0 0 0 0 0 
0 0 0 0 0 0 0 0 0 
0 0 0 0 0 0 0 0 0 
0 0 0 0 0 0 0 0 0 
0 0 0 0 0 0 0 0 0 
0 0 0 0 0 0 0 0 0 
0 0 0 0 0 0 0 0 0 
0 0 0 0 0 0 0 0 0 
0 0 0 0 0 0 0 0 0 
0 0 0 0 0 0 0 0 0 
0 0 0 0 0 0 0 0 0 
0 0 0 0 0 0 0 0 0 
0 0 0 0 0 0 0 0 0 
0 0 0 0 0 0 0 0 0 
0 0 0 0 0 0 0 0 0 
0 0 0 0 0 0 0 0 0 
0 0 0 0 0 0 0 0 0 
0 0 0 0 0 0 0 0 0 
0 0 0 0 0 0 0 0 0 
0 0 0 0 0 0 0 0 0 
0 0 0 0 0 0 0 0 0 
0 0 0 0 0 0 0 0 0 
0 0 0 0 0 0 0 0 0 
0 0 0 0 0 0 0 0 0 
0 0 0 0 0 0 0 0 0 
0 0 0 0 0 0 0 0 0 
0 0 0 0 0 0 0 0 0 
0 0 0 0 0 0 0 0 0 
0 0 0 0 0 0 0 0 0 
0 0 0 0 0 0 0 0 0 
0 0 0 0 0 0 0 0 0 
0 0 0 0 0 0 0 0 0 
0 0 0 0 0 0 0 0 0 
0 0 0 0 0 0 0 0 0 
0 0 0 0 0 0 0 0 0 
0 0 0 0 0 0 0 0 0 
0 0 0 0 0 0 0 0 0 
0 0 0 0 0 0 0 0 0 
0 0 0 0 0 0 0 0 0 
0 0 0 0 0 0 0 0 0 
0 0 0 0 0 0 0 0 0 
0 0 0 0 0 0 0 0 0 
0 0 0 0 0 0 0 0 0 
0 0 0 1.94631e-13 0 0 0 0 0 
0 0 0 0 0 0 0 0 0 
0 0 0 0 0 0 0 0 0 
0 0 0 0 0 0 0 0 0 
0 0 0 0 0 0 0 0 0 
0 0 0 0 0 0 0 0 0 
0 0 0 0 0 0 0 0 0 
0 0 0 0 0 0 0 0 0 
0 0 0 0 0 0 0 0 0 
0 0 0 0 0 0 0 0 0 
0 0 0 0 0 0 0 0 0 
0 0 0 0 0 0 0 0 0 
0 0 0 0 0 0 0 0 0 
0 0 0 0 0 0 0 0 0 
0 0 0 0 0 0 0 0 0 
0 0 0 0 0 0 0 0 0 
0 0 0 0 0 0 0 0 0 
0 0 0 0 0 0 0 0 0 
0 0 0 0 0 0 0 0 0 
0 0 0 0 0 0 0 0 0 
0 0 0 0 0 0 0 0 0 
0 0 0 0 0 0 0 0 0 
0 0 0 0 0 0 0 0 0 
0 0 0 0 0 0 0 0 0 
0 0 0 0 0 0 0 0 0 
0 0 0 0 0 0 0 0 0 
0 0 0 0 0 0 0 0 0 
0 0 0 0 0 0 0 0 0 
0 0 0 0 0 0 0 0 0 
0 0 0 0 0 0 0 0 0 
0 0 0 0 0 0 0 0 0 
0 0 0 0 0 0 0 0 0 
0 0 0 0 0 0 0 0 0 
0 0 0 0 0 0 0 0 0 
0 0 0 0 0 0 0 0 0 
0 0 0 0 0 0 0 0 0 
0 0 0 0 0 0 0 0 0 
0 0 0 0 0 0 0 0 0 
0 0 2.42945e-12 0 0 0 0 0 0 
0 0 0 0 0 0 0 0 0 
0 0 0 0 0 0 0 0 0 
0 5.53175e-12 0 0 0 0 0 0 0 
0 0 0 0 0 0 0 0 0 
0 0 0 0 0 0 0 0 0 
0 0 0 0 0 0 0 0 0 
0 0 0 0 0 0 0 0 0 
0 0 0 0 0 0 0 0 0 
0 0 0 0 0 0 0 0 0 
0 0 0 0 0 0 0 0 0 
0 0 0 0 0 0 0 0 0 
0 0 0 0 0 0 0 0 0 
0 0 0 0 0 0 0 0 0 
0 0 0 0 0 0 0 0 0 
0 0 0 0 0 0 0 0 0 
0 0 0 0 0 0 0 0 0 
0 0 0 0 0 0 0 0 0 
0 0 0 0 0 0 0 0 0 
0 0 0 0 0 0 0 0 0 
0 0 0 0 0 0 0 0 0 
0 0 0 0 0 0 0 0 0 
0 0 0 0 0 0 0 0 0 
0 0 0 0 0 0 0 0 0 
0 0 0 0 0 0 0 0 0 
0 0 0 0 0 0 0 0 0 
0 0 0 0 0 0 0 0 0 
0 0 0 0 0 0 0 0 0 
0 0 0 0 0 0 0 0 0 
0 0 0 0 0 0 0 0 0 
0 0 0 0 0 0 0 0 0 
0 0 0 0 0 0 0 0 0 
0 0 0 0 0 0 0 0 0 
2.31635e-12 0 0 0 0 0 0 0 0 
0 0 0 0 0 0 0 0 0 
0 0 0 0 0 0 0 0 0 
0 0 0 0 0 0 0 0 0 
0 0 0 0 0 0 0 0 0 
0 0 0 0 0 0 0 0 0 
0 0 0 0 0 0 0 0 0 
0 0 0 0 0 0 0 0 0 
0 0 0 0 3.05338e-12 0 0 0 0 
0 0 0 0 0 0 0 0 0 
0 0 0 0 0 0 0 0 0 
0 0 0 0 0 0 0 0 0 
0 0 0 0 0 0 0 0 0 
0 0 0 0 0 0 0 0 0 
0 0 0 0 0 0 0 0 0 
0 1.04871e-13 0 0 0 0 0 0 0 
0 0 0 0 0 0 0 0 0 
0 0 0 0 0 0 0 0 0 
0 0 0 0 0 0 0 0 0 
0 0 0 0 0 0 0 0 0 
0 0 0 0 0 0 0 0 0 
0 0 0 0 0 0 0 0 0 
0 0 0 0 0 0 0 0 0 
0 0 0 0 0 0 0 0 0 
0 0 0 0 0 0 0 0 0 
0 0 0 0 0 0 0 0 0 
0 0 0 0 0 0 0 0 0 
0 0 0 0 0 0 0 0 0 
0 1.65462e-12 0 0 0 0 0 0 0 
0 0 0 0 0 0 0 0 0 
0 0 0 0 0 0 0 0 0 
0 0 0 0 0 0 0 0 0 
0 0 0 0 4.02586e-13 0 0 0 0 
0 0 0 0 0 0 0 0 0 
0 0 0 0 0 0 0 0 0 
0 0 0 0 0 0 0 0 0 
0 0 0 0 0 0 0 0 0 
0 0 0 1.12342e-11 0 0 0 0 0 
0 0 0 0 0 0 0 0 0 
0 0 0 0 0 0 0 0 0 
0 0 0 0 0 0 0 0 0 
0 0 0 0 0 0 0 0 0 
0 0 0 0 0 0 0 0 0 
0 0 0 0 0 0 0 0 0 
0 0 0 0 0 0 0 0 0 
0 0 0 0 0 0 0 0 0 
0 0 0 0 0 0 0 0 0 
0 0 0 0 0 0 0 0 0 
0 0 0 0 0 0 0 0 0 
0 0 0 0 0 0 0 0 0 
0 0 0 0 0 0 0 0 0 
0 0 0 0 0 0 0 0 0 
0 0 0 0 0 0 0 0 0 
0 0 0 0 0 0 0 0 0 
0 0 0 0 8.62651e-13 0 0 0 0 
0 0 0 0 0 0 0 0 9.54966e-12 
0 0 0 0 0 0 0 0 0 
0 0 0 0 0 0 0 0 0 
0 0 0 0 0 0 0 0 0 
0 0 0 0 0 0 0 0 0 
0 0 0 3.56496e-12 0 0 0 0 0 
0 0 0 0 0 0 0 0 0 
0 0 0 2.53193e-12 0 0 0 0 0 
0 0 1.59166e-12 0 0 0 0 0 0 
0 0 0 0 0 0 0 0 0 
0 0 0 0 0 0 0 0 0 
0 0 0 0 0 0 0 0 0 
0 0 0 0 0 0 0 0 0 
0 0 0 0 0 0 0 0 0 
0 0 0 0 0 0 0 0 0 
0 0 0 0 0 0 0 0 0 
0 0 0 0 0 0 0 0 0 
0 0 0 0 0 0 0 0 0 
0 0 0 0 0 0 0 0 0 
0 0 0 0 0 0 0 0 0 
0 0 0 0 0 0 0 0 0 
0 0 0 0 0 0 0 0 0 
0 0 0 0 0 0 0 0 0 
0 0 0 0 0 0 0 0 0 
0 0 0 0 0 0 0 0 0 
0 0 0 0 0 0 0 0 0 
0 9.81351e-13 0 0 0 0 0 0 0 
0 0 0 0 0 0 0 0 0 
0 0 0 0 0 0 0 0 0 
0 0 0 0 0 0 0 0 0 
0 0 0 0 0 0 0 0 5.49126e-12 
0 0 0 0 0 0 0 0 0 
0 0 0 0 0 0 0 0 0 
0 0 0 0 0 0 0 2.60787e-12 0 
0 0 0 0 0 0 0 0 0 
0 0 0 0 0 0 0 0 0 
0 0 0 0 0 0 0 0 0 
0 0 0 0 0 6.63006e-12 0 0 0 
0 0 0 0 0 0 0 0 0 
0 0 0 0 0 0 0 0 0 
0 0 0 0 0 0 0 0 0 
0 0 0 0 0 0 0 0 0 
0 0 0 0 0 0 0 0 0 
0 0 0 0 0 0 0 0 0 
0 0 0 0 0 0 0 0 0 
0 0 0 0 0 0 0 0 0 
0 0 0 0 0 0 0 0 0 
0 0 0 0 0 0 0 0 0 
0 0 0 0 0 0 0 0 0 
0 0 0 0 0 0 0 0 0 
0 0 0 0 0 0 0 0 0 
0 0 0 0 0 0 0 0 0 
0 0 0 0 0 0 0 0 0 
0 0 0 0 0 0 0 0 0 
0 0 0 0 0 0 0 0 0 
0 0 0 0 0 0 0 0 0 
1.47883e-11 0 0 0 2.79757e-11 1.36214e-11 0 0 0 
0 0 0 0 0 0 0 0 0 
0 2.57315e-11 0 0 0 0 0 0 2.14142e-11 
0 0 0 0 0 0 0 0 0 
0 0 0 0 0 0 0 0 0 
0 0 0 0 0 0 0 0 0 
0 0 0 0 0 0 0 0 0 
0 0 0 0 0 0 0 0 0 
0 0 0 0 0 0 0 0 0 
0 0 0 0 0 7.14499e-13 0 0 0 
0 0 0 0 0 0 0 0 0 
0 0 0 0 0 0 0 0 0 
0 0 0 0 0 0 0 0 0 
0 0 0 0 0 0 0 0 0 
0 0 0 0 0 0 0 0 0 
0 2.35509e-12 0 0 0 0 0 0 0 
0 0 0 0 0 0 0 0 0 
0 0 0 0 0 0 0 0 0 
0 0 0 0 0 0 0 0 0 
0 0 0 0 0 0 0 0 0 
0 5.36203e-12 0 0 0 0 0 0 0 
0 0 0 0 0 0 0 0 0 
0 0 0 0 0 2.86135e-12 0 0 0 
0 0 0 0 0 5.0023e-12 0 0 0 
0 0 0 0 0 0 0 0 0 
0 0 0 0 0 0 0 0 0 
0 0 5.88651e-12 0 0 0 0 0 0 
0 0 0 0 0 1.09154e-11 1.38696e-11 0 0 
0 0 0 0 0 0 0 0 0 
0 0 0 0 0 0 0 0 0 
1.24655e-13 0 0 0 0 0 0 0 0 
1.13344e-11 5.61409e-13 0 0 0 2.49342e-11 0 0 0 
0 0 2.84446e-13 0 0 1.36552e-11 0 0 0 
0 0 0 0 0 0 0 0 0 
0 0 0 0 0 0 0 0 0 
0 0 0 0 0 0 0 0 0 
0 0 0 0 0 9.88807e-12 0 1.58561e-11 0 
0 0 0 0 0 0 0 0 0 
0 0 0 0 0 1.90564e-12 0 0 0 
0 0 0 0 0 0 0 0 7.64633e-13 
0 0 0 0 0 0 0 0 0 
0 0 0 0 0 0 0 0 0 
0 0 0 0 0 0 0 0 0 
0 0 0 0 0 0 0 4.28681e-12 0 
0 0 0 0 0 0 0 0 0 
0 0 0 0 0 0 0 0 0 
0 0 0 0 0 0 0 0 0 
0 0 0 0 0 0 0 0 0 
0 0 0 0 0 0 0 0 0 
0 0 0 0 0 0 0 0 0 
0 0 0 0 0 0 0 0 0 
0 0 0 0 0 0 0 0 0 
0 0 0 0 0 0 0 0 0 
0 0 0 0 0 0 0 0 1.5837e-13 
0 0 0 0 0 0 0 0 0 
0 0 0 0 0 1.9971e-11 0 2.3534e-11 0 
0 0 0 0 0 0 0 0 0 
0 0 0 0 2.1161e-11 0 2.79999e-11 0 0 
7.00611e-12 0 0 0 0 0 0 0 0 
2.66451e-11 0 0 0 0 0 0 0 0 
0 1.59218e-11 1.9995e-11 0 0 0 0 0 0 
0 0 0 0 0 0 0 0 0 
0 0 0 0 5.76653e-12 0 0 0 0 
0 0 0 0 0 0 8.62689e-12 0 0 
0 0 0 5.37295e-12 0 0 0 0 0 
0 0 0 0 0 0 0 0 0 
0 0 0 0 0 0 0 0 0 
0 0 0 0 0 0 0 0 0 
0 0 0 0 0 0 0 0 0 
0 0 0 0 0 0 0 0 0 
0 0 0 0 0 0 0 0 0 
0 0 1.14432e-11 0 0 0 0 0 0 
0 0 0 0 0 0 0 0 0 
0 0 0 0 0 0 0 0 0 
0 0 0 0 0 0 0 0 0 
0 0 0 0 0 0 0 0 0 
0 0 0 0 0 0 0 0 0 
0 0 0 0 0 0 0 0 0 
0 0 0 0 0 0 0 0 0 
0 0 0 0 0 0 0 0 0 
0 0 0 0 0 0 0 0 0 
0 0 1.09641e-11 1.83249e-11 0 0 0 7.03449e-12 0 
0 0 0 0 0 0 0 0 0 
0 2.5566e-11 0 4.59182e-12 0 0 0 0 0 
0 0 1.09898e-11 0 0 0 0 0 0 
0 0 0 0 0 0 0 0 0 
0 0 0 0 0 0 0 1.25215e-11 0 
0 0 0 0 1.27187e-12 0 0 0 0 
0 2.48279e-11 0 0 0 0 0 0 0 
7.70549e-12 0 0 0 0 0 0 0 0 
0 0 0 0 0 0 0 0 0 
9.60314e-12 0 0 0 0 0 0 7.81043e-12 0 
0 0 0 0 0 0 1.8313e-11 0 0 
0 0 0 0 0 0 0 0 0 
0 0 0 0 0 0 0 0 0 
0 4.91456e-12 0 0 0 0 0 0 2.72128e-13 
0 0 0 0 0 0 0 0 0 
0 0 0 0 0 0 0 0 0 
0 0 0 0 0 0 0 0 1.08601e-11 
0 0 0 1.44943e-11 0 0 0 0 0 
0 0 0 0 2.07653e-12 0 0 0 0 
0 0 0 0 0 0 0 0 0 
0 0 0 0 0 0 0 0 0 
0 0 0 0 0 0 0 0 0 
0 0 0 0 0 0 0 0 0 
0 0 0 0 0 0 0 0 0 
0 0 0 0 0 0 0 1.09973e-12 0 
0 0 0 0 0 0 0 0 0 
0 0 0 0 0 0 0 0 0 
0 0 0 0 0 0 0 0 0 
0 0 1.74151e-11 1.7642e-11 0 1.37573e-11 0 0 0 
4.08065e-11 0 4.13221e-11 0 0 0 0 0 0 
2.82718e-11 0 0 0 0 0 0 0 0 
0 2.52294e-11 0 0 0 0 0 5.05807e-11 0 
0 0 0 0 0 0 0 8.06125e-13 0 
0 0 0 0 0 0 0 0 0 
3.96472e-11 0 0 4.16435e-12 0 1.09423e-11 0 0 0 
0 0 0 0 0 0 1.01746e-11 0 0 
0 0 0 0 0 0 0 1.48414e-12 0 
2.69035e-11 0 0 0 0 0 0 0 0 
0 0 0 0 0 0 0 0 0 
0 0 0 3.83913e-12 0 0 1.46345e-11 0 0 
0 0 0 0 0 0 0 0 0 
0 0 0 0 0 0 0 0 0 
0 0 0 0 0 0 0 0 0 
0 0 2.29918e-12 0 0 0 0 0 0 
0 0 0 4.00492e-12 0 0 0 0 0 
0 0 0 0 0 0 0 0 0 
1.66464e-12 0 0 0 0 0 0 0 0 
0 0 0 0 0 0 0 0 0 
0 0 0 0 0 0 0 0 0 
0 0 0 0 0 0 0 0 0 
0 0 0 0 0 0 0 0 0 
0 0 0 0 0 0 0 0 0 
0 0 0 0 0 0 0 0 0 
0 0 0 0 0 0 1.07454e-11 0 0 
3.1033e-11 0 3.55958e-11 0 0 0 0 0 0 
0 0 0 0 0 0 0 0 0 
0 0 0 0 1.70713e-11 0 2.44512e-11 0 0 
2.36101e-11 3.22905e-11 0 0 0 4.53934e-11 0 0 0 
0 0 0 0 0 0 0 0 0 
0 0 0 2.07888e-11 7.36515e-11 0 0 2.54924e-11 0 
4.44447e-11 0 0 0 0 0 0 0 0 
0 3.30533e-11 0 4.63303e-11 0 0 0 0 0 
0 0 0 0 7.35708e-12 0 0 0 1.19669e-11 
0 0 0 0 0 0 0 0 0 
0 0 0 0 0 0 0 0 0 
0 0 0 6.22708e-11 2.25559e-11 0 0 0 0 
0 0 0 0 1.70998e-12 0 0 0 0 
0 9.21577e-12 0 0 0 0 0 0 0 
0 0 1.39315e-11 0 0 0 0 0 0 
0 0 0 0 0 0 2.81434e-12 0 0 
0 0 0 0 0 0 0 0 0 
0 0 0 0 0 0 0 0 0 
0 0 0 0 0 0 0 0 2.70824e-11 
0 0 0 0 0 0 0 0 0 
0 0 0 0 0 0 0 0 0 
0 0 0 0 0 0 0 0 0 
0 0 0 0 0 0 0 0 0 
0 0 0 0 0 0 0 0 0 
0 0 0 0 0 0 0 0 0 
0 0 0 0 0 0 0 0 0 
0 0 0 0 0 0 0 0 0 
0 0 0 0 0 0 0 0 0 
3.32128e-11 0 0 0 5.87519e-11 0 0 0 0 
0 0 0 0 0 0 0 0 0 
0 0 1.36518e-11 2.41482e-11 0 0 0 0 0 
0 0 0 0 2.21543e-11 0 0 0 0 
0 0 0 0 0 7.7309e-11 0 0 3.17014e-12 
2.01904e-11 0 6.48652e-11 1.01923e-10 0 0 0 0 0 
0 0 0 0 0 0 0 0 0 
5.03946e-11 5.09805e-11 0 0 5.93281e-11 0 0 0 0 
3.99102e-11 0 0 0 0 1.33034e-13 0 0 0 
0 0 0 0 2.78715e-11 0 0 1.30923e-12 0 
0 6.77057e-13 0 0 0 0 0 0 0 
0 0 0 1.4044e-12 4.86222e-11 0 0 1.1103e-11 0 
1.52673e-11 0 0 2.05192e-11 0 0 0 0 0 
0 0 0 0 0 0 0 0 0 
0 1.02779e-11 5.67983e-12 0 0 0 0 0 0 
0 2.05539e-11 0 2.71088e-12 0 0 0 0 0 
0 0 0 0 0 0 0 0 0 
0 0 0 0 0 0 0 1.14924e-11 0 
0 1.25469e-11 0 0 0 0 0 0 0 
0 0 0 0 1.08274e-11 0 0 0 0 
0 0 0 0 0 0 0 0 0 
0 0 0 0 0 0 0 0 0 
0 0 0 0 0 0 0 0 0 
0 0 3.34961e-12 0 0 0 0 0 0 
0 0 0 0 0 0 0 0 0 
0 0 0 0 0 0 0 0 0 
0 0 5.64757e-14 0 0 1.66785e-11 0 0 0 
0 1.31325e-12 0 0 6.22894e-12 0 0 0 0 
0 0 3.98754e-11 0 0 0 0 5.68887e-11 0 
0 0 0 0 0 2.62884e-11 0 0 0 
0 0 0 0 8.30643e-11 0 2.01155e-10 0 0 
0 0 5.25772e-11 3.92224e-11 2.20297e-11 0 0 2.68244e-11 0 
0 0 0 0 0 8.18407e-12 0 0 7.99137e-11 
0 0 0 1.4175e-12 0 0 8.01023e-11 0 0 
0 0 0 0 7.01625e-11 0 0 5.10552e-11 0 
0 0 0 0 0 2.21835e-11 1.40496e-12 0 0 
3.48141e-11 0 0 0 0 0 2.61411e-11 0 0 
0 0 0 0 0 0 0 0 4.7544e-11 
0 0 0 0 8.52418e-11 0 1.3589e-10 0 0 
0 3.84028e-11 0 0 0 0 3.03814e-11 0 0 
5.82895e-11 0 4.76222e-11 0 0 3.35176e-11 0 0 0 
0 0 0 0 1.67456e-11 0 0 3.37486e-11 0 
0 0 1.84967e-11 2.87885e-11 0 0 0 0 0 
0 0 0 0 0 0 0 0 0 
0 0 0 0 0 0 0 0 0 
0 0 0 0 0 0 0 0 0 
0 0 2.14642e-11 4.88553e-12 0 0 0 3.14203e-11 0 
0 0 0 0 0 0 0 0 0 
0 0 0 0 0 0 0 0 0 
0 0 0 0 0 0 0 0 0 
0 0 0 0 0 0 0 0 0 
0 0 0 0 0 0 0 0 0 
0 0 0 0 0 0 0 0 0 
0 0 0 0 0 0 0 3.9945e-11 0 
0 0 0 0 9.20825e-12 5.45601e-13 0 0 0 
0 0 0 0 0 4.66117e-11 0 0 0 
0 2.36352e-10 0 0 5.83756e-11 0 0 0 0 
5.0326e-12 0 0 1.64324e-11 0 0 0 0 0 
0 0 0 2.06421e-10 2.43335e-08 0 0 0 3.9702e-11 
0 2.54311e-11 0 0 0 0 0 0 0 
0 0 0 0 2.37733e-10 0 1.89962e-13 0 3.69495e-11 
0 1.80422e-11 0 2.37542e-11 0 0 0 0 6.17119e-11 
0 0 9.25501e-12 0 0 0 0 0 0 
0 0 0 0 0 0 0 0 3.6957e-11 
0 0 1.87846e-11 0 1.24504e-11 0 0 0 0 
0 0 4.73863e-11 0 0 0 0 0 0 
0 0 6.25943e-11 6.93042e-11 0 0 0 0 0 
1.20236e-10 9.59524e-12 0 0 0 9.68759e-11 5.39683e-11 0 0 
0 0 0 0 0 0 0 0 0 
0 1.83805e-11 0 0 0 0 0 0 0 
1.92846e-11 0 0 0 0 3.06557e-11 0 0 0 
0 0 0 0 0 0 0 0 0 
0 0 0 0 0 0 0 4.9578e-12 0 
0 0 1.93704e-11 0 5.10778e-13 3.74596e-11 0 0 0 
0 0 0 6.38262e-11 0 3.7596e-11 0 0 0 
0 0 0 0 0 0 1.1767e-12 0 0 
0 0 0 0 0 0 0 0 0 
1.68713e-12 0 0 0 0 0 0 0 0 
0 0 0 0 0 0 0 0 0 
0 0 0 0 0 0 0 0 0 
0 0 0 0 0 0 0 0 0 
0 0 0 0 1.5027e-11 1.14521e-11 0 0 5.92468e-11 
0 0 0 4.48929e-11 5.59594e-12 3.49815e-11 0 0 0 
0 0 0 0 0 0 0 0 0 
0 3.37577e-11 0 0 0 2.64003e-11 7.11971e-11 0 7.89957e-12 
0 1.03105e-11 0 0 8.98544e-12 1.69112e-11 4.69464e-11 0 0 
0 0 0 1.72442e-10 0 0 4.60424e-11 0 2.29053e-11 
0 0 0 0 0 0 0 1.89734e-11 5.58125e-11 
3.07821e-11 1.29422e-10 2.54823e-08 0 0 0 0 0 0 
2.8251e-11 0 0 0 2.64921e-08 0 0 1.29736e-10 7.5514e-13 
0 1.00987e-13 5.69778e-11 0 2.09314e-11 1.01078e-10 1.37978e-10 0 0 
0 0 0 4.93263e-11 2.92608e-11 1.52065e-11 0 0 0 
0 0 0 2.11458e-11 0 0 0 0 0 
1.29162e-11 0 1.10899e-10 5.73587e-11 0 0 0 0 0 
0 0 0 2.52233e-08 0 0 0 2.29474e-11 0 
9.2438e-11 0 0 1.81395e-10 5.13835e-11 0 0 5.90012e-11 7.25938e-11 
0 0 3.09177e-11 0 0 4.09741e-11 0 0 0 
0 4.28599e-11 0 0 2.84504e-11 0 0 0 0 
0 0 0 0 0 0 0 2.43138e-11 0 
0 7.1871e-13 0 0 0 0 0 0 0 
0 0 0 0 0 0 6.38016e-12 0 0 
0 0 0 0 0 0 0 0 6.09937e-12 
0 0 0 0 0 0 0 0 0 
0 0 1.79855e-11 0 0 0 0 0 0 
0 0 0 0 0 0 0 0 0 
0 0 0 0 0 0 0 0 0 
0 0 0 0 0 0 0 0 0 
0 0 0 0 0 0 0 0 0 
0 0 0 0 0 0 0 0 0 
1.14707e-11 0 0 0 0 7.96362e-11 8.76268e-11 0 0 
0 2.26945e-11 0 0 0 0 0 0 0 
0 0 0 0 0 1.22091e-11 0 0 0 
0 0 0 0 0 0 3.67438e-11 0 0 
0 0 0 0 1.01677e-11 0 8.36198e-11 8.36653e-11 0 
0 0 1.02738e-10 8.12762e-11 2.37631e-12 0 0 1.23299e-12 0 
0 0 0 0 0 4.15689e-11 0 0 0 
1.32879e-10 0 0 0 1.45592e-10 0 0 0 0 
2.66104e-11 0 1.75951e-10 0 0 0 0 0 5.69265e-11 
3.14214e-11 0 7.27917e-11 1.96119e-11 0 0 2.46524e-08 0 0 
3.29043e-11 0 0 0 0 1.58884e-11 0 0 0 
0 0 4.82247e-11 0 0 8.55159e-11 6.72003e-11 0 0 
1.02126e-10 7.60715e-11 3.05543e-11 0 7.55294e-11 0 0 0 1.36384e-10 
0 0 0 3.53711e-11 0 1.71364e-10 0 0 0 
1.12018e-10 0 0 0 5.1668e-11 6.33281e-11 0 6.75476e-12 0 
0 0 1.09075e-11 3.45297e-11 0 0 0 0 0 
0 0 0 0 0 2.36251e-11 0 8.08937e-11 0 
0 0 5.78143e-11 0 7.53802e-11 0 0 0 0 
0 0 0 0 0 0 0 0 0 
0 8.18451e-12 0 0 0 0 0 0 0 
0 0 1.68854e-11 9.18567e-11 1.73874e-11 0 0 0 0 
0 5.66055e-11 0 3.69423e-11 2.91479e-11 0 0 0 1.34748e-11 
0 1.90117e-11 0 0 0 0 0 0 0 
0 0 0 0 0 0 0 0 0 
0 0 0 0 0 0 0 0 0 
0 0 0 0 0 0 0 0 0 
0 0 0 0 0 0 0 0 0 
0 0 0 0 0 0 0 0 0 
0 4.96125e-12 0 5.46721e-11 0 0 0 0 0 
0 0 0 4.17335e-11 4.83171e-11 0 0 0 2.26093e-13 
0 2.63503e-08 0 2.47618e-10 0 0 6.88951e-12 0 0 
0 1.16189e-10 1.01542e-12 0 0 0 0 0 4.22533e-11 
2.65629e-11 0 0 0 0 2.89337e-11 6.41062e-11 0 0 
0 0 0 0 8.62938e-12 0 0 0 0 
0 0 0 0 0 0 4.90654e-11 0 0 
0 0 9.63858e-11 0 3.05056e-11 0 0 0 0 
0 0 0 0 0 0 5.27528e-11 6.09045e-12 0 
0 1.2167e-10 0 0 0 0 3.64492e-10 0 0 
0 0 0 0 0 0 0 1.12982e-11 0 
0 0 0 0 0 2.17925e-10 0 0 5.94505e-11 
0 0 0 3.72814e-11 4.92605e-11 2.21426e-11 0 0 0 
1.24716e-10 0 0 0 0 2.90877e-10 2.73348e-08 2.64863e-10 0 
0 0 1.20858e-10 0 0 8.86926e-11 0 0 0 
1.11616e-11 0 0 0 0 1.26477e-11 0 0 0 
0 5.57008e-11 1.21622e-10 0 0 0 0 4.14108e-11 5.84272e-11 
0 0 0 0 0 0 0 3.65467e-12 0 
0 0 0 0 5.77886e-12 0 0 0 0 
0 0 0 0 3.89914e-11 0 0 0 0 
0 0 7.26734e-11 0 0 2.41442e-10 0 0 0 
0 0 0 5.40355e-11 0 0 0 0 0 
0 0 1.33746e-11 0 0 0 0 0 0 
0 0 0 0 0 0 0 0 0 
0 0 0 0 0 0 0 0 0 
0 0 0 0 5.68106e-13 0 0 0 0 
0 0 0 0 0 0 0 0 0 
0 0 8.79839e-12 0 0 0 0 3.79211e-11 0 
0 6.68868e-11 0 0 2.47335e-08 0 3.40826e-11 0 0 
4.22832e-11 0 3.65557e-11 0 0 0 0 7.82939e-13 0 
3.59407e-10 0 0 0 0 2.5188e-11 1.38761e-10 0 0 
1.52147e-10 0 0 0 7.80023e-11 1.59208e-11 0 0 0 
0 0 3.83807e-11 1.56617e-11 0 0 4.19169e-11 0 0 
0 0 0 1.92793e-11 0 3.18273e-11 0 2.73869e-11 0 
0 0 0 0 0 2.43219e-10 2.0346e-10 0 0 
0 2.45011e-11 6.35766e-11 9.08263e-11 0 0 1.62636e-10 0 0 
4.15973e-11 0 0 0 0 0 1.05337e-10 9.35079e-11 0 
1.43213e-10 0 1.60758e-10 0 0 9.72662e-11 0 5.6348e-11 0 
0 0 1.76146e-11 0 0 0 0 0 0 
4.22653e-11 0 0 2.44665e-08 1.57157e-10 0 1.05119e-10 0 0 
0 0 0 0 0 1.00968e-10 0 0 1.45725e-10 
4.54779e-12 7.16758e-12 0 0 0 1.79709e-10 0 0 2.01767e-10 
0 0 0 0 0 0 1.65902e-10 0 3.5576e-11 
0 0 0 0 0 0 0 0 1.1041e-10 
0 0 0 6.64442e-11 1.5564e-10 0 0 0 0 
0 0 0 0 0 0 0 1.0361e-11 0 
0 0 0 0 0 0 0 0 6.86931e-12 
0 0 0 0 0 0 1.21173e-10 0 8.37786e-11 
0 0 0 2.49517e-08 0 0 0 0 6.84781e-11 
0 0 4.21394e-11 0 2.05228e-11 0 7.82554e-12 0 0 
0 6.10255e-12 0 0 0 0 0 0 0 
0 0 0 0 0 0 0 0 0 
0 0 0 0 0 0 0 0 0 
0 0 0 0 0 0 0 0 0 
0 0 0 0 0 0 0 0 0 
0 0 0 0 1.97758e-13 0 0 0 6.20512e-13 
0 1.8336e-10 8.26543e-11 1.19895e-10 3.08023e-11 0 0 0 0 
0 0 0 0 0 0 0 0 0 
2.23278e-10 0 0 3.6125e-12 0 1.0723e-10 1.39389e-10 4.63324e-11 0 
0 0 0 0 0 0 0 0 0 
2.70334e-11 0 0 0 0 3.00866e-11 0 7.07952e-11 0 
0 0 0 0 2.50612e-11 0 0 2.18732e-11 0 
6.7542e-11 0 0 0 1.55207e-10 0 4.2208e-11 0 0 
2.95947e-10 0 0 2.98991e-10 0 0 0 0 0 
0 2.58277e-13 1.08783e-12 4.01038e-11 0 6.36941e-11 0 0 2.28831e-10 
0 0 0 0 5.20897e-11 4.48155e-12 0 0 0 
0 0 0 0 0 0 0 0 2.08679e-11 
0 0 0 0 1.00749e-10 0 0 3.79083e-11 0 
6.71303e-11 0 0 2.96918e-11 0 0 0 0 9.95806e-11 
0 0 0 0 1.534e-10 2.79352e-10 2.7128e-08 0 0 
0 1.51377e-11 0 0 0 6.09694e-11 0 0 0 
0 2.419e-12 0 4.48925e-13 6.88039e-11 0 1.67179e-10 8.70151e-11 0 
0 0 0 0 0 4.9715e-11 0 0 0 
0 0 0 0 0 0 0 0 0 
0 0 0 0 0 0 1.56342e-11 0 0 
0 0 0 3.19486e-11 5.67433e-11 0 0 1.69294e-11 3.61903e-11 
0 0 0 0 0 9.38439e-12 0 5.95278e-11 4.12652e-11 
0 0 0 0 0 7.62405e-12 0 0 0 
0 1.28822e-11 0 0 0 0 0 0 0 
0 0 0 0 0 0 0 0 0 
0 0 0 0 0 0 0 0 0 
0 0 0 0 0 0 0 0 0 
0 0 0 0 0 0 0 0 0 
0 0 0 3.44463e-12 0 0 6.89552e-11 1.27492e-11 0 
1.09656e-10 2.90159e-11 3.23833e-11 0 0 0 1.20063e-11 0 1.98551e-10 
0 0 2.48896e-11 0 0 2.7475e-10 0 0 2.1244e-10 
0 0 0 0 2.68294e-08 0 0 4.58061e-11 0 
3.9981e-11 0 0 2.16549e-12 7.1296e-11 0 0 0 0 
0 0 0 0 0 0 0 0 0 
0 0 8.07269e-12 0 0 6.53347e-11 6.60769e-11 2.16511e-11 0 
0 0 0 0 0 0 0 0 0 
0 0 0 0 0 0 0 0 1.23473e-10 
0 1.7864e-11 1.82906e-10 1.03721e-10 6.36143e-12 0 1.31663e-11 0 0 
0 0 0 0 0 8.90133e-12 0 0 6.13061e-12 
0 0 0 1.01224e-10 0 0 0 0 3.63914e-11 
3.27642e-11 0 1.49619e-10 0 0 1.07009e-11 0 0 0 
0 8.75258e-11 0 0 0 0 0 1.20131e-10 0 
0 0 0 2.38735e-10 0 0 0 0 0 
0 0 0 0 0 4.8543e-11 0 0 0 
0 0 0 3.71471e-11 0 0 0 0 0 
0 0 0 5.06235e-11 6.10113e-11 9.35401e-11 7.61358e-11 0 0 
0 0 0 0 0 0 0 0 0 
0 0 0 3.42898e-11 0 0 0 0 0 
0 0 0 4.31468e-11 0 1.36012e-10 3.95306e-11 0 0 
0 1.94581e-10 0 0 0 0 0 0 0 
0 0 0 0 3.25373e-11 0 0 0 0 
0 0 0 0 0 0 0 0 0 
0 0 0 0 0 0 0 0 0 
0 0 0 0 0 0 0 0 0 
0 0 0 0 0 0 0 0 0 
0 0 0 0 0 0 0 0 0 
0 0 5.21886e-11 0 0 5.30104e-11 0 2.82501e-11 1.60508e-11 
0 0 0 0 3.14674e-12 0 0 0 0 
0 1.40132e-10 0 0 0 0 0 0 0 
0 6.62618e-11 2.52632e-10 0 0 9.00867e-11 0 0 0 
3.90819e-11 0 0 2.14855e-11 0 0 0 0 1.29532e-11 
0 0 0 0 0 0 2.5926e-11 0 6.62298e-11 
0 0 0 7.77174e-11 6.72497e-11 0 0 0 0 
1.73018e-10 0 0 3.03468e-08 0 0 1.57073e-13 3.48506e-08 0 
0 0 0 1.66168e-10 0 1.04597e-10 0 6.86004e-11 1.68216e-10 
1.88098e-11 1.98726e-11 7.49872e-11 0 0 0 0 5.98255e-11 0 
5.46094e-11 0 0 0 0 0 1.25706e-11 0 0 
0 0 0 0 0 0 0 0 0 
2.60676e-11 0 0 0 7.65858e-11 0 0 0 5.45453e-11 
0 0 0 1.76604e-11 0 0 0 5.48731e-11 0 
7.6538e-11 0 0 0 0 0 0 9.17464e-11 4.61444e-11 
0 0 0 0 0 0 1.52954e-10 0 0 
0 0 0 0 0 0 0 0 0 
0 0 0 0 0 7.15731e-11 6.33134e-11 0 0 
0 0 0 0 8.80815e-12 0 0 0 0 
0 3.52215e-11 0 6.06932e-11 0 0 0 0 0 
0 0 9.51629e-11 0 0 0 0 0 0 
0 0 4.73033e-11 6.68165e-11 2.38312e-11 1.02242e-10 0 5.2197e-11 1.36438e-10 
0 0 0 0 0 0 0 0 0 
0 0 0 0 0 0 0 0 0 
0 0 0 0 0 0 0 0 0 
0 0 0 0 0 0 0 0 0 
0 0 0 0 0 0 0 0 0 
0 0 0 0 0 0 0 0 0 
0 3.86539e-11 0 9.64731e-11 0 6.03924e-11 0 0 0 
0 0 0 1.13499e-10 4.15746e-11 4.59626e-11 0 9.66293e-11 0 
0 0 0 0 0 0 0 0 0 
0 0 0 0 0 1.178e-11 0 0 0 
0 0 0 0 0 0 9.9901e-11 0 0 
0 0 8.20583e-11 0 0 0 7.97966e-12 0 0 
0 0 0 0 0 7.91004e-11 0 1.81073e-10 0 
0 0 2.44827e-10 0 0 0 0 0 0 
0 0 0 0 2.63261e-08 0 0 0 0 
0 0 0 0 0 0 0 0 0 
0 0 0 0 0 0 0 0 1.3967e-11 
0 0 0 0 1.94613e-11 0 0 0 6.31913e-11 
0 8.78954e-12 0 0 1.25637e-10 0 0 0 0 
6.11247e-11 0 0 0 0 0 9.99413e-11 0 8.29002e-11 
6.37421e-11 9.40083e-11 0 0 0 0 1.21571e-10 0 0 
1.01619e-10 2.49707e-08 0 0 0 1.17152e-10 4.49039e-11 0 0 
0 1.95591e-10 0 0 0 0 2.83883e-08 0 0 
6.43973e-11 0 0 0 0 0 0 0 0 
0 0 0 0 0 0 0 0 0 
0 4.44226e-11 0 0 0 1.06443e-10 6.05042e-11 0 0 
1.03152e-11 0 0 0 0 0 0 0 0 
0 1.35454e-12 0 9.47516e-13 0 0 0 0 7.74173e-11 
4.41654e-11 0 0 0 0 0 0 0 0 
0 0 0 0 0 0 0 0 0 
0 0 0 0 0 0 0 0 0 
0 0 0 0 0 0 0 0 0 
0 0 0 0 0 0 0 0 0 
0 0 0 0 0 0 2.08281e-11 0 0 
0 6.08228e-11 0 0 0 0 0 9.12419e-11 0 
4.00651e-10 0 0 0 3.12336e-11 8.02036e-11 0 0 0 
0 3.85926e-08 3.87911e-08 0 0 0 3.09089e-11 0 0 
0 0 7.0957e-11 6.08737e-12 0 0 0 0 0 
0 0 8.72177e-11 0 0 4.27172e-11 0 0 0 
0 0 2.01637e-11 0 0 0 0 0 0 
0 2.34197e-11 0 0 7.51012e-13 0 0 0 0 
0 0 0 0 3.34006e-08 0 0 2.17849e-10 0 
2.61333e-10 0 2.75308e-10 0 0 1.01049e-11 0 0 1.39142e-11 
0 0 0 0 0 5.6693e-11 0 0 0 
0 0 0 0 0 0 0 0 0 
0 7.53154e-11 0 0 0 0 0 0 0 
0 1.26679e-11 0 0 0 0 0 0 0 
0 0 0 1.19845e-10 0 0 0 1.64287e-10 0 
0 5.87309e-12 0 0 0 0 0 6.79056e-13 0 
0 7.3587e-11 1.20238e-11 0 1.02377e-10 5.62536e-11 0 2.17126e-10 0 
0 0 0 0 9.02718e-11 0 0 0 3.29166e-11 
0 0 0 0 0 0 0 0 0 
0 0 0 0 1.74696e-11 1.88142e-11 0 0 2.07269e-11 
0 0 0 0 2.64308e-10 0 0 1.39033e-10 0 
3.93389e-11 1.28224e-10 0 0 0 1.08312e-10 2.21224e-10 0 0 
0 0 0 0 0 0 0 0 2.03255e-11 
0 0 0 0 1.48829e-11 5.68867e-12 0 0 0 
0 0 0 0 0 0 0 0 0 
0 0 0 0 0 0 0 0 0 
0 0 0 0 0 0 0 0 0 
0 0 0 0 0 0 0 0 0 
0 0 0 0 2.23726e-11 0 0 0 0 
0 0 6.50424e-11 0 0 0 0 0 0 
0 1.31533e-11 0 0 4.19711e-11 0 8.60518e-11 0 0 
0 0 2.30583e-10 0 0 9.19456e-11 1.03328e-10 0 0 
0 0 3.77445e-11 0 0 0 0 0 0 
4.40322e-12 0 0 8.67628e-11 0 1.05593e-10 0 9.2413e-13 0 
0 0 0 0 0 0 0 0 0 
0 0 0 0 0 0 9.03885e-12 0 2.39396e-11 
0 4.82367e-10 0 0 0 6.30329e-11 0 2.411e-11 0 
5.33979e-11 0 0 0 0 0 7.81338e-11 0 0 
0 9.20076e-11 0 0 4.74536e-11 0 0 4.96776e-11 0 
0 0 0 0 0 2.83271e-11 0 0 0 
0 0 0 0 7.64219e-12 0 0 0 0 
0 0 0 0 0 0 0 0 0 
0 3.21408e-11 4.50324e-11 0 0 0 0 0 0 
3.37709e-11 0 0 8.95742e-11 0 0 0 0 0 
0 0 0 0 0 3.07278e-11 0 5.78804e-11 0 
5.60721e-11 0 0 2.14383e-10 0 0 0 3.93297e-11 0 
3.79661e-12 0 0 0 0 0 0 0 0 
0 0 0 0 0 0 0 0 0 
2.02423e-10 1.69579e-10 2.6862e-08 0 0 1.91537e-10 0 0 0 
0 0 5.93512e-11 0 0 2.56501e-11 0 0 0 
0 0 0 1.56103e-11 0 0 0 0 0 
0 0 0 0 0 0 0 0 0 
0 0 0 0 0 0 0 0 0 
0 0 0 0 0 0 0 0 0 
0 0 0 0 0 0 0 0 0 
0 0 0 0 0 0 0 0 0 
0 0 0 0 0 0 0 4.56988e-11 0 
0 2.31144e-11 0 0 0 2.68472e-08 0 3.84388e-10 1.18524e-10 
0 0 0 0 2.77328e-10 3.00405e-10 0 0 0 
5.16401e-11 2.00424e-10 0 0 1.14814e-10 0 0 0 0 
0 0 0 0 0 0 0 0 0 
0 0 0 3.05743e-11 1.02754e-10 9.75809e-11 0 3.05277e-10 0 
0 2.35134e-11 0 0 0 0 5.90556e-11 0 0 
0 0 0 1.05617e-10 2.3353e-11 0 4.29967e-11 0 0 
0 0 4.66449e-11 0 9.89401e-11 9.47932e-12 1.94907e-11 0 0 
9.91191e-11 0 1.34806e-11 1.54008e-11 0 0 0 5.78946e-11 0 
0 0 0 0 0 0 0 0 0 
0 0 0 0 3.11741e-11 0 3.91691e-11 0 0 
0 0 0 0 0 0 0 0 0 
0 0 0 0 0 0 4.37038e-11 0 0 
0 0 1.23932e-10 0 0 0 0 1.24414e-11 0 
0 0 0 0 0 5.71815e-11 0 0 1.60195e-11 
1.32077e-10 0 0 0 0 0 0 0 1.87302e-10 
2.72869e-10 0 0 0 9.41806e-11 0 0 2.23378e-11 0 
1.7836e-11 0 0 0 0 0 0 0 0 
0 0 3.61343e-13 0 0 0 0 0 0 
1.1506e-10 8.30464e-11 7.43632e-11 0 0 0 0 0 0 
0 0 1.97383e-10 2.85608e-11 4.38543e-11 1.12712e-10 0 3.11686e-08 0 
0 0 0 0 0 0 0 0 0 
0 0 0 0 0 0 0 0 0 
0 0 0 0 0 0 0 0 0 
0 0 0 0 0 0 0 0 0 
0 0 0 0 0 0 0 0 0 
0 0 0 0 0 0 0 0 0 
0 0 0 0 0 0 0 2.45712e-10 4.59961e-11 
0 0 0 0 2.81226e-10 1.57889e-10 0 4.47907e-12 0 
0 3.63663e-11 0 1.89056e-10 0 0 0 0 0 
3.98575e-11 0 0 0 0 0 0 0 0 
0 0 0 0 0 0 0 1.25372e-10 0 
0 1.31397e-10 2.05939e-12 0 0 0 6.16586e-11 0 2.43517e-11 
1.07129e-11 0 0 5.42941e-11 0 3.50868e-11 0 0 0 
0 0 0 0 0 4.47212e-11 2.11754e-10 2.36362e-11 0 
0 0 0 2.347e-11 0 0 0 1.98141e-11 0 
0 9.36735e-11 0 0 0 0 0 0 0 
0 6.12975e-11 1.33475e-10 0 0 0 0 0 2.24825e-11 
1.06802e-11 0 5.64426e-11 0 0 0 0 0 0 
1.19319e-10 0 0 0 0 0 0 0 9.88716e-11 
0 0 0 0 0 0 0 0 0 
0 0 0 0 0 0 3.76099e-11 8.03321e-11 0 
1.14514e-11 1.04124e-10 0 0 0 0 0 0 0 
1.02521e-10 0 0 0 0 0 0 0 0 
0 2.65276e-08 0 0 0 0 0 4.46071e-11 0 
0 0 0 0 0 0 0 0 0 
2.60131e-11 0 0 0 1.18534e-10 0 0 0 3.28774e-10 