# vtk DataFile Version 5.1
vtk output
ASCII
DATASET STRUCTURED_POINTS
DIMENSIONS 250 250 1
SPACING 1 1 1
ORIGIN 0 0 0
POINT_DATA 62500
FIELD FieldData 6
feature_1 1 62500 float
0 0 0 0 0 0 0 0 0 
0 0 0 0 0 0 0 0 0 
0 0 0 0 0 0 0 0 0 
0 0 0 0 0 0 0 0 0 
0 0 0 0 0 0 0 0 0 
0 0 0 0 0 0 0 0 0 
4.25418e-13 0 0 0 0 0 0 0 0 
0 0 0 0 0 0 0 0 0 
0 0 0 0 0 0 0 0 0 
0 0 0 0 0 0 0 0 0 
0 0 0 0 0 0 0 0 0 
0 0 0 0 0 0 0 0 0 
0 0 0 0 0 0 1.33197e-12 0 0 
0 0 0 0 0 0 0 0 0 
0 0 0 0 0 0 0 0 0 
0 0 0 0 0 0 0 0 0 
0 0 0 0 0 0 0 0 0 
0 0 0 0 0 0 0 0 0 
0 0 0 0 0 0 0 0 0 
0 0 0 0 0 0 0 0 0 
0 0 0 0 3.2365e-13 0 0 0 0 
0 0 0 0 0 0 0 0 0 
0 0 0 0 0 0 0 0 0 
0 0 0 0 5.41379e-13 0 0 0 0 
0 0 0 0 0 0 0 0 0 
0 0 0 0 0 0 0 0 0 
0 0 0 0 0 0 0 0 0 
0 0 0 0 0 0 0 0 0 
0 0 0 0 0 0 0 0 0 
0 0 0 0 0 0 0 0 0 
0 0 0 0 0 0 0 0 0 
0 0 0 0 0 0 0 0 0 
0 0 0 0 0 0 0 8.52547e-14 0 
0 0 0 0 0 0 0 0 0 
0 0 0 0 0 0 0 0 0 
0 0 0 0 3.73512e-13 0 0 0 0 
0 0 0 0 0 0 0 0 0 
0 0 0 0 0 0 0 0 0 
0 0 0 0 0 0 0 0 0 
0 0 0 0 0 0 0 0 5.59697e-12 
0 0 0 0 0 0 0 0 0 
0 0 0 0 0 0 0 0 0 
0 0 0 0 0 0 0 0 0 
0 0 0 0 0 0 0 0 0 
0 0 0 0 0 0 0 0 0 
0 2.04937e-12 0 0 0 0 0 0 0 
0 0 0 0 0 0 0 0 0 
0 0 0 0 0 0 0 0 0 
0 0 0 0 0 0 0 0 0 
0 0 0 0 0 0 0 0 0 
0 0 0 0 0 0 0 0 0 
6.12748e-13 0 0 9.37538e-13 0 0 5.88826e-13 0 0 
0 0 0 0 0 0 0 0 0 
0 0 0 0 0 0 0 0 0 
0 0 0 0 0 2.53878e-13 0 0 0 
0 0 0 0 0 0 0 0 0 
0 0 0 0 0 0 0 0 0 
0 0 0 0 0 0 0 0 0 
0 0 0 0 0 0 0 0 0 
0 0 0 0 0 0 0 0 0 
0 0 0 0 4.09194e-12 0 0 0 0 
0 0 0 0 0 0 0 0 0 
0 0 0 0 0 0 0 0 0 
0 0 0 0 0 0 0 0 0 
0 0 0 0 0 0 0 0 0 
0 0 0 0 0 0 0 0 0 
0 0 0 0 0 0 0 0 0 
0 0 0 0 0 0 0 0 0 
0 0 0 0 0 0 0 0 0 
0 0 0 0 0 0 0 0 7.88322e-13 
0 0 0 0 0 0 0 0 0 
0 1.75835e-12 0 0 0 0 0 0 0 
0 0 0 0 0 0 0 0 0 
0 0 0 0 0 0 0 0 0 
0 0 0 0 0 0 0 0 0 
0 0 0 0 0 0 0 0 0 
0 0 0 0 0 0 0 0 0 
0 0 0 0 0 0 0 0 0 
1.46384e-12 0 0 0 0 0 0 0 0 
0 0 0 0 0 0 0 0 0 
0 0 0 0 0 0 0 0 0 
0 0 0 0 0 0 0 0 0 
0 0 0 0 0 0 0 0 0 
0 0 0 0 0 0 0 0 0 
0 0 0 0 0 0 0 0 0 
0 0 0 0 0 0 0 0 0 
0 0 0 0 0 0 0 0 0 
0 0 0 0 0 0 0 0 0 
0 0 0 0 0 0 2.27042e-12 0 0 
0 0 0 0 0 0 0 0 0 
0 0 0 0 0 0 0 0 0 
0 0 0 0 0 0 0 0 0 
0 0 0 0 0 0 0 0 0 
0 0 0 0 0 0 0 0 0 
0 0 0 0 0 0 0 0 0 
0 0 0 0 0 0 0 0 0 
0 0 0 1.15185e-12 0 0 0 0 0 
0 0 0 0 0 0 0 0 0 
0 0 0 0 0 0 0 0 0 
0 0 0 0 0 0 0 0 0 
0 0 0 4.03486e-13 0 0 0 0 0 
0 0 0 0 0 0 0 0 0 
0 0 0 0 0 0 0 0 0 
0 0 1.93821e-13 0 0 0 0 0 0 
0 0 0 0 0 0 0 0 0 
0 0 0 0 0 0 0 0 0 
0 0 0 0 0 0 0 0 0 
0 0 0 0 0 0 0 0 0 
0 0 1.4011e-13 0 0 0 0 0 0 
0 0 0 0 0 0 0 0 0 
0 0 0 0 0 0 0 0 0 
0 0 0 0 0 0 0 0 0 
0 0 0 0 0 0 0 0 0 
0 0 0 0 0 0 0 0 0 
0 0 0 0 0 0 0 0 0 
0 0 0 0 0 0 0 0 0 
0 0 0 0 1.30937e-12 0 0 0 0 
0 0 0 0 0 0 0 0 0 
0 0 0 0 0 0 0 0 0 
0 0 0 0 0 0 0 0 0 
0 0 0 0 0 0 0 0 0 
0 0 0 0 0 0 0 0 0 
0 0 0 0 2.33579e-12 0 0 0 0 
0 0 0 0 0 0 0 0 0 
0 0 0 0 0 0 0 0 0 
0 1.20201e-12 0 0 0 0 0 0 0 
0 0 0 0 0 0 0 0 0 
0 0 0 0 0 0 0 0 0 
0 0 0 0 0 0 0 0 0 
0 0 0 0 2.45549e-12 0 0 0 0 
0 0 0 0 0 0 0 0 0 
0 0 3.93025e-12 0 0 0 0 0 0 
0 0 0 0 1.57216e-12 0 0 0 0 
0 0 0 0 0 0 0 0 7.52958e-13 
0 0 0 0 0 0 0 0 1.43626e-12 
0 0 0 0 0 0 0 4.10895e-13 0 
0 0 0 0 0 0 0 1.57976e-12 0 
0 0 0 0 0 0 0 0 0 
0 0 0 0 0 0 0 0 0 
0 0 0 0 0 0 0 0 0 
0 0 0 0 0 0 0 0 0 
0 0 0 0 0 0 0 1.46941e-12 0 
0 0 0 0 0 0 0 0 0 
0 0 0 0 0 0 0 0 0 
0 0 0 0 0 0 0 0 0 
0 0 0 0 0 0 0 0 0 
0 0 0 0 0 0 0 0 0 
0 0 0 0 0 0 0 0 0 
0 0 0 0 0 0 0 0 0 
0 0 0 0 0 0 0 0 0 
0 0 0 0 0 0 0 0 0 
0 0 0 0 0 0 0 0 0 
0 0 0 0 0 0 0 0 0 
0 0 0 0 0 0 0 0 0 
0 0 0 0 0 0 0 0 0 
0 0 0 0 0 0 0 0 0 
0 0 0 0 0 0 0 0 0 
0 0 0 0 0 2.73476e-12 0 0 0 
0 0 0 0 0 0 0 0 4.84211e-13 
0 0 0 0 0 0 0 0 0 
0 0 0 0 0 0 0 0 0 
1.33337e-12 0 0 0 0 0 0 0 0 
0 0 0 0 0 0 0 0 0 
0 0 0 0 0 0 0 0 0 
0 0 0 0 0 0 0 0 0 
0 0 0 0 0 0 0 0 0 
0 0 0 0 0 0 0 0 0 
0 0 0 0 0 0 0 0 0 
0 0 0 0 0 0 0 0 0 
0 0 0 0 0 0 5.09892e-12 0 0 
0 0 0 0 4.86848e-13 0 0 0 0 
0 0 0 0 0 0 0 0 0 
0 7.19918e-13 0 0 0 0 0 0 0 
0 0 0 0 0 0 0 0 0 
0 0 0 0 0 0 0 0 0 
0 0 0 0 0 0 0 0 0 
0 0 3.82278e-12 0 0 0 0 0 0 
0 0 0 0 0 0 0 0 0 
0 0 0 0 0 0 2.31474e-12 0 0 
0 0 0 0 0 0 0 0 0 
0 1.23111e-12 0 0 0 0 0 0 0 
0 0 0 1.17822e-12 0 0 0 0 0 
0 0 0 0 0 0 0 0 0 
0 0 0 0 0 0 0 0 0 
0 0 0 0 0 0 0 0 0 
0 0 0 0 0 0 0 0 0 
0 0 0 0 0 0 0 0 0 
0 0 0 0 0 0 0 0 0 
0 0 0 0 0 0 0 0 0 
0 0 0 0 0 0 0 0 0 
0 0 0 0 0 0 0 0 0 
0 0 0 0 0 0 0 0 0 
1.72571e-12 0 0 0 0 0 0 0 0 
0 0 0 0 0 0 0 0 0 
0 0 0 0 0 0 0 0 0 
0 0 0 0 0 0 0 0 0 
0 0 0 0 0 0 0 0 0 
0 0 0 2.20806e-12 0 0 0 0 0 
0 0 0 0 0 0 0 0 0 
0 0 0 0 0 0 0 0 0 
0 0 0 0 0 0 0 0 0 
0 0 0 0 0 0 0 0 0 
0 0 0 0 1.96294e-12 0 2.95061e-12 0 1.37091e-12 
0 0 0 0 0 0 4.78589e-13 0 0 
0 0 0 0 0 0 0 0 0 
0 0 0 0 0 0 0 0 0 
0 0 0 0 0 0 0 0 0 
5.9128e-13 0 0 0 0 0 0 0 0 
0 0 0 0 0 0 0 0 0 
0 0 0 0 0 0 0 0 0 
1.34763e-13 0 0 0 0 0 0 0 0 
0 0 0 0 0 0 0 0 0 
0 0 0 0 0 0 0 0 0 
0 0 0 0 0 0 0 0 0 
0 0 0 0 0 0 0 0 0 
0 0 0 0 0 0 0 0 0 
0 1.91441e-12 0 0 0 0 0 0 7.01317e-13 
0 0 0 0 0 0 0 0 0 
0 0 0 0 0 0 0 0 0 
0 0 0 0 0 0 0 0 0 
0 0 0 0 0 0 0 0 0 
5.04478e-12 0 0 0 0 1.22821e-12 0 0 0 
0 0 0 0 0 0 0 0 0 
0 0 0 0 0 0 0 0 0 
0 0 0 0 0 0 0 0 0 
0 0 0 0 0 0 0 0 0 
0 0 0 0 0 0 0 5.33897e-12 0 
0 9.97902e-13 0 4.00157e-13 0 0 0 0 0 
0 0 0 0 0 0 0 0 0 
0 2.49497e-13 0 0 0 0 0 0 0 
0 0 0 0 0 0 0 0 0 
0 0 0 0 0 0 0 0 0 
0 0 0 0 0 0 0 0 0 
0 0 0 0 0 0 0 0 0 
0 0 0 0 0 0 0 0 0 
0 0 0 0 0 0 0 0 0 
0 0 0 0 0 0 0 0 0 
0 0 0 0 0 0 0 0 0 
0 0 0 0 0 0 0 0 0 
0 0 0 0 0 0 0 0 0 
0 0 0 0 0 0 0 0 0 
0 0 0 0 0 0 0 0 0 
0 0 0 0 0 0 0 0 0 
0 0 0 0 0 0 0 0 0 
0 0 0 0 0 0 0 0 0 
0 0 0 0 0 0 0 0 0 
0 0 0 0 0 0 0 0 0 
0 0 0 0 0 0 0 1.17696e-13 0 
0 0 0 0 0 0 0 0 0 
0 0 0 0 0 0 0 0 0 
0 0 0 0 0 0 0 0 0 
0 0 0 0 0 0 0 0 0 
0 0 0 0 0 0 0 0 0 
0 0 0 0 0 0 0 0 0 
0 0 0 0 0 0 0 0 0 
0 0 0 0 0 0 0 0 0 
0 0 0 0 0 0 0 0 0 
0 0 0 0 0 0 0 0 0 
0 0 0 0 0 0 0 0 0 
0 0 0 0 0 0 0 0 0 
0 0 0 0 0 0 0 0 0 
0 0 0 0 0 0 0 0 0 
0 0 0 0 0 0 4.57297e-12 0 2.58521e-12 
0 0 0 0 0 0 0 0 0 
0 0 0 0 0 0 0 0 0 
0 0 0 0 1.33954e-13 0 0 0 0 
0 0 0 0 0 0 0 0 0 
0 0 0 0 0 0 0 0 0 
0 0 0 0 0 0 0 0 0 
0 0 0 0 0 0 0 0 0 
0 0 0 0 0 0 0 0 0 
0 0 0 0 0 0 0 0 0 
0 0 0 0 0 0 0 0 0 
0 0 0 0 0 0 0 0 0 
0 0 0 0 0 0 0 0 0 
7.53573e-13 0 0 0 0 0 0 0 0 
0 0 0 0 0 0 0 0 0 
0 0 0 0 0 0 0 0 0 
0 0 0 0 0 0 0 0 0 
0 0 0 0 0 0 0 0 0 
0 0 0 0 0 0 0 0 0 
0 0 0 0 0 0 0 0 0 
0 0 0 0 0 0 0 0 0 
0 0 0 2.76325e-12 0 0 0 0 0 
0 0 0 0 0 0 0 0 0 
0 0 0 0 0 0 0 0 0 
0 0 0 0 0 0 0 0 0 
0 0 0 0 0 0 0 0 0 
0 0 0 0 0 0 0 0 0 
0 0 0 0 0 0 0 0 0 
0 0 0 0 0 0 0 0 0 
0 0 0 0 0 0 0 0 0 
0 0 0 0 0 0 0 0 0 
0 2.04157e-12 0 0 0 0 0 0 0 
0 0 0 0 0 0 0 0 0 
9.47162e-13 0 0 0 0 0 0 0 0 
0 0 0 0 0 0 0 0 0 
0 0 0 0 0 0 0 0 0 
4.07037e-13 0 0 0 0 0 0 0 0 
0 0 0 0 0 0 0 0 0 
0 0 0 0 0 0 0 0 0 
0 0 0 0 0 0 0 0 0 
0 0 0 0 0 0 0 0 0 
0 0 0 0 0 0 0 0 0 
0 0 0 0 0 0 0 0 0 
0 0 0 0 0 0 0 0 0 
0 0 0 0 0 0 0 0 0 
0 0 1.34974e-12 0 0 0 0 0 0 
0 2.26348e-12 0 0 0 0 0 0 0 
0 0 0 0 0 0 0 0 0 
1.23341e-13 0 0 1.66679e-12 0 0 0 0 0 
0 0 0 0 0 0 0 0 0 
0 0 4.93217e-14 0 0 0 0 0 0 
0 0 0 0 0 0 0 5.84986e-13 0 
0 0 0 0 0 0 0 0 0 
0 0 0 0 0 0 0 0 0 
0 0 0 0 0 0 0 0 0 
0 0 0 0 0 0 0 0 0 
0 0 0 0 0 0 0 0 0 
0 0 0 0 0 0 0 0 0 
0 0 0 0 0 0 0 0 0 
0 1.49374e-13 0 0 0 0 0 0 0 
0 0 0 0 0 0 0 0 0 
0 0 0 0 0 0 0 0 0 
0 0 0 0 0 0 0 0 0 
0 0 0 0 0 0 0 0 0 
0 0 0 0 0 0 0 0 0 
0 0 0 0 0 0 0 2.64549e-13 0 
0 0 0 0 0 0 0 0 0 
0 0 0 0 0 0 0 0 0 
0 0 0 0 0 0 0 0 0 
0 0 0 0 0 0 0 0 1.82638e-12 
0 0 0 3.91111e-13 0 0 0 0 0 
0 0 0 0 0 0 0 0 0 
0 0 0 0 0 0 0 0 0 
0 0 0 0 0 0 0 0 0 
0 0 0 0 0 0 0 0 7.44753e-13 
0 0 0 0 0 0 0 0 0 
0 0 0 0 0 0 0 0 0 
0 0 0 2.71896e-12 0 0 0 0 0 
0 0 0 0 0 0 0 0 0 
0 0 0 0 0 0 0 0 0 
0 0 0 0 0 0 0 0 0 
0 0 0 0 0 0 0 0 0 
0 0 0 0 0 0 0 0 0 
0 0 0 0 0 0 0 0 0 
0 0 0 0 0 0 0 0 7.24342e-14 
0 0 0 0 0 0 0 0 0 
0 1.29002e-12 0 0 0 0 0 0 0 
0 0 3.33492e-12 0 0 0 0 0 0 
0 0 0 0 0 0 8.14457e-13 0 0 
0 0 0 0 0 0 0 0 0 
0 0 0 0 0 0 0 0 0 
0 0 0 0 0 0 0 0 0 
0 0 0 0 0 0 0 0 0 
0 0 0 0 0 0 0 0 0 
0 0 0 0 0 0 0 0 0 
0 0 0 0 0 0 0 0 0 
0 0 0 0 0 0 0 0 0 
0 0 0 0 0 0 0 0 0 
0 0 0 0 0 0 0 0 0 
0 0 0 0 0 0 0 0 0 
0 0 0 0 0 0 0 0 0 
0 0 0 0 0 0 0 0 0 
0 0 0 0 0 0 0 0 0 
0 0 0 0 2.92306e-12 0 0 0 0 
0 0 0 0 0 0 0 0 0 
0 0 0 0 0 0 0 0 0 
0 0 0 0 0 0 0 0 0 
0 0 0 0 0 0 0 0 0 
0 0 0 0 0 0 0 0 0 
0 0 0 0 0 0 0 0 0 
0 0 0 0 0 0 0 0 4.93974e-13 
0 0 0 0 0 0 0 0 0 
0 0 0 0 0 0 0 0 0 
0 0 0 0 0 0 0 0 0 
0 0 0 0 0 0 0 0 0 
0 0 0 0 0 0 0 0 0 
0 0 0 0 0 0 0 0 0 
0 0 0 0 0 0 0 9.71364e-13 0 
0 0 0 0 0 0 0 0 0 
0 0 0 0 0 0 0 0 0 
0 0 0 0 0 0 0 0 0 
0 0 0 0 0 0 0 0 0 
0 0 0 0 0 0 0 0 9.29297e-13 
0 4.07713e-12 0 0 0 0 0 0 0 
0 0 0 0 0 0 0 0 0 
0 0 0 0 0 0 0 0 0 
0 0 0 0 0 0 0 0 0 
0 2.49934e-12 0 0 0 0 0 0 0 
0 0 0 0 0 0 0 0 1.73641e-13 
0 0 0 0 0 0 0 0 3.95396e-14 
0 0 0 0 0 0 0 0 0 
0 0 0 0 0 0 0 0 0 
0 0 0 0 0 0 0 0 0 
0 0 1.50194e-12 0 8.59526e-13 0 0 0 0 
0 0 0 0 0 0 0 1.46245e-12 0 
0 0 0 0 0 0 1.86031e-12 0 0 
0 0 0 0 0 0 0 0 0 
0 0 0 0 0 0 1.34945e-12 0 0 
0 0 0 2.64946e-12 0 0 0 0 0 
0 0 0 5.84001e-13 0 0 0 0 0 
0 0 0 0 0 0 0 0 0 
0 0 0 0 0 0 0 0 0 
0 0 0 0 0 0 0 0 0 
0 0 0 0 0 0 0 0 0 
0 0 0 0 0 0 0 0 0 
0 0 0 0 0 0 0 0 0 
0 2.35444e-12 0 0 0 0 0 0 0 
0 0 0 0 0 0 0 0 0 
0 0 0 0 0 0 0 0 0 
0 0 0 0 0 0 0 0 0 
0 0 0 0 0 0 0 0 0 
0 0 0 0 0 0 0 0 0 
0 0 0 0 0 0 0 0 0 
0 0 0 0 9.97188e-13 0 0 0 0 
0 0 0 0 0 0 0 0 0 
0 0 0 0 0 0 0 0 0 
0 0 0 0 0 0 0 0 0 
0 0 0 0 0 0 0 0 0 
0 0 0 0 0 0 0 0 0 
0 0 0 0 0 0 0 0 0 
0 0 0 0 0 0 0 0 0 
0 0 0 0 0 0 0 0 0 
0 0 0 0 0 0 0 0 0 
0 0 0 0 0 0 0 0 0 
0 0 0 0 0 0 0 0 0 
0 0 0 0 0 0 0 0 0 
0 0 0 0 0 0 0 0 0 
0 0 0 0 0 0 0 0 0 
0 0 0 0 0 0 0 0 0 
0 0 0 0 0 0 0 0 0 
0 0 0 0 0 0 0 0 0 
0 0 0 0 0 0 0 0 0 
0 0 0 0 0 0 0 0 0 
0 0 0 0 0 0 0 0 0 
0 0 0 0 0 0 0 0 0 
0 0 0 0 0 0 0 0 0 
0 0 0 0 0 0 0 0 0 
0 1.46641e-12 0 0 0 0 0 0 0 
0 0 0 0 0 0 0 0 0 
0 0 2.47287e-12 0 0 0 0 0 1.84018e-12 
0 0 0 0 0 0 0 0 0 
0 0 0 0 0 0 0 0 0 
0 0 5.62575e-13 0 0 1.8669e-12 0 0 0 
0 0 0 0 0 0 0 0 0 
0 0 0 0 0 0 0 0 0 
0 0 0 0 0 0 0 0 0 
0 0 0 0 0 0 0 0 0 
0 0 0 0 0 0 0 0 0 
0 0 0 0 0 0 0 0 0 
0 0 0 0 0 0 0 0 0 
0 0 0 0 0 0 0 0 0 
0 0 0 0 0 0 0 0 0 
0 0 0 0 0 0 0 0 0 
0 0 0 0 0 0 0 0 0 
0 0 0 0 0 0 0 0 0 
0 0 0 0 0 0 0 0 0 
0 0 0 0 0 0 0 0 0 
0 0 0 0 0 0 0 0 0 
0 0 0 0 8.28723e-12 0 0 0 0 
5.1566e-13 0 0 0 0 0 0 0 0 
0 0 0 0 0 0 0 0 0 
0 0 0 0 0 0 0 0 0 
0 0 0 0 0 0 0 0 0 
0 0 0 0 0 0 0 0 0 
0 0 0 0 0 0 9.26266e-13 0 0 
0 1.56528e-12 0 0 0 0 0 0 0 
0 0 0 0 0 0 0 0 0 
0 0 0 0 0 0 0 0 0 
0 0 0 0 0 0 0 0 0 
0 0 0 0 0 0 0 0 0 
0 0 0 0 0 0 0 0 0 
0 0 0 0 0 0 0 0 0 
0 0 0 0 0 3.30376e-12 0 0 0 
7.95193e-13 0 0 0 0 0 0 0 0 
0 0 0 0 0 0 0 0 0 
0 0 0 2.92433e-12 0 0 0 0 0 
3.2391e-12 0 0 0 0 0 0 0 0 
0 0 0 0 0 0 0 0 2.02362e-13 
0 3.39089e-12 0 0 0 0 0 0 0 
0 0 0 0 0 0 0 0 0 
0 0 0 0 0 0 0 0 0 
0 0 4.05655e-12 0 0 0 0 0 0 
0 0 0 0 0 0 0 0 0 
0 0 0 0 0 0 0 0 3.47421e-12 
0 0 0 0 0 0 0 0 0 
0 0 0 0 0 0 0 0 0 
0 0 0 0 0 0 0 0 0 
0 0 0 4.00042e-12 0 0 0 0 0 
0 0 0 0 0 0 0 0 0 
0 0 0 0 0 0 0 0 0 
0 0 0 0 0 0 0 0 0 
0 0 0 0 0 0 0 0 2.49146e-13 
0 0 0 0 0 0 0 0 0 
0 0 0 0 0 2.16566e-12 0 0 0 
0 0 0 0 0 0 0 0 0 
0 0 0 0 0 0 0 0 0 
0 0 0 0 0 0 0 0 0 
0 0 0 0 0 0 0 0 0 
0 0 0 0 0 0 0 0 0 
0 0 0 0 0 0 0 0 0 
0 0 0 0 0 0 0 0 0 
0 0 0 0 0 0 0 0 0 
0 0 0 0 0 0 0 0 5.80178e-14 
0 0 0 0 0 0 0 0 0 
0 0 0 0 0 0 0 0 3.1861e-12 
0 0 0 0 0 0 0 0 0 
0 0 0 0 0 0 0 0 0 
0 0 0 0 0 0 0 0 0 
0 0 0 7.85321e-12 0 0 0 0 0 
0 0 0 0 0 0 0 0 0 
0 0 0 0 0 0 0 0 0 
0 0 0 0 0 0 0 0 0 
0 0 0 0 0 0 0 0 0 
0 0 0 0 0 0 0 0 0 
0 0 0 0 0 0 0 0 0 
0 0 0 0 0 0 0 0 0 
0 0 0 0 0 0 0 0 0 
0 0 0 0 0 0 0 0 0 
0 0 0 2.29168e-12 0 0 0 0 0 
0 0 0 0 0 0 0 0 0 
0 0 0 0 0 0 3.19153e-12 0 0 
0 0 0 0 0 0 0 0 0 
0 0 0 0 2.07434e-12 0 0 0 0 
0 0 0 0 0 0 0 0 0 
2.52854e-12 0 0 0 0 0 0 5.19213e-13 3.70174e-12 
0 0 0 0 0 0 0 0 0 
0 0 0 0 0 0 0 0 0 
0 0 0 0 0 0 0 0 0 
0 0 0 0 0 0 0 0 0 
0 0 0 0 0 0 0 0 0 
0 0 0 0 0 0 0 0 0 
0 0 0 0 0 0 0 0 0 
0 0 0 0 0 1.88223e-12 0 0 0 
0 0 0 0 0 0 0 0 0 
0 0 0 0 0 0 0 0 0 
0 0 0 0 0 0 0 0 2.35739e-12 
0 0 0 0 0 0 0 0 0 
0 0 0 0 0 0 0 0 0 
0 0 0 0 0 0 0 3.90782e-12 0 
0 0 0 0 0 0 0 0 0 
0 0 0 3.96343e-12 0 0 0 0 0 
0 0 0 0 0 0 0 0 0 
0 0 0 0 0 4.47721e-12 0 0 0 
0 0 0 0 0 0 0 0 0 
0 0 0 0 0 0 0 0 0 
0 0 0 0 0 0 0 5.2722e-12 0 
0 0 0 0 0 0 0 0 0 
0 0 0 0 0 0 0 0 0 
0 0 0 0 0 0 0 0 0 
0 0 0 0 0 0 0 0 0 
0 0 0 0 0 0 0 0 0 
0 0 0 0 0 0 0 0 0 
0 0 0 0 0 0 0 0 0 
0 0 0 0 0 0 0 0 0 
0 0 0 0 0 0 0 0 0 
0 0 0 0 0 0 0 0 0 
0 0 0 0 0 0 0 0 0 
0 0 0 0 0 0 0 0 0 
0 0 0 0 0 0 0 0 0 
0 0 0 0 0 0 3.50488e-12 0 0 
0 0 0 0 1.5691e-12 0 0 0 0 
1.94678e-11 0 0 0 2.24408e-11 5.51113e-12 0 0 0 
0 0 0 0 0 0 0 0 0 
3.38216e-13 2.26243e-11 0 0 0 0 0 0 1.86763e-11 
0 0 0 0 0 0 0 0 0 
0 0 0 0 0 0 0 0 0 
0 0 0 0 0 0 0 0 0 
0 0 8.4047e-13 3.37352e-13 0 0 0 0 0 
0 1.12665e-12 0 0 0 0 0 0 2.04005e-13 
0 0 0 0 0 0 0 0 0 
0 0 0 0 0 0 1.3958e-12 0 0 
0 0 0 0 0 0 0 0 0 
0 0 0 0 0 0 0 0 0 
0 0 0 0 0 0 0 0 0 
0 0 0 0 0 0 0 0 0 
0 0 0 0 0 0 0 0 0 
0 7.15408e-12 0 0 0 0 8.34666e-13 0 0 
0 0 0 0 0 0 0 0 0 
0 0 0 0 0 0 0 0 0 
0 0 0 0 0 0 0 0 0 
0 0 0 0 0 0 1.82234e-12 0 0 
0 0 0 0 0 0 2.8705e-12 0 6.86438e-13 
0 0 0 0 0 0 0 0 0 
0 0 0 0 0 9.56053e-12 0 0 0 
0 0 0 0 0 0 0 0 0 
0 0 0 0 0 0 0 0 0 
0 7.55208e-13 0 0 0 0 0 0 0 
0 0 3.41412e-12 0 0 0 0 0 0 
0 0 0 0 0 1.98769e-11 1.97489e-11 0 0 
0 0 0 0 0 0 0 0 0 
0 0 3.71265e-12 0 0 0 0 0 0 
0 0 0 0 0 0 0 0 0 
1.33011e-11 1.92641e-12 0 0 0 2.22434e-11 0 0 0 
1.90943e-12 0 0 0 0 1.45315e-11 0 0 0 
0 0 0 0 0 0 0 0 0 
0 0 0 0 0 7.54488e-13 0 0 0 
0 0 0 0 0 0 0 0 0 
0 0 0 0 0 9.61529e-12 0 1.70907e-11 0 
0 0 1.21243e-12 0 3.9584e-12 0 0 0 4.57196e-12 
0 0 0 0 0 0 0 0 0 
0 0 0 0 0 0 0 0 0 
0 0 0 0 0 0 0 0 0 
0 0 0 0 0 0 0 0 0 
0 0 0 0 0 0 0 0 0 
0 0 0 0 0 0 0 7.5839e-12 0 
0 0 0 0 0 0 0 0 0 
0 0 0 0 0 0 0 0 0 
0 0 0 0 0 0 0 0 0 
0 0 0 0 0 0 0 0 0 
0 0 0 0 0 0 0 3.26075e-12 0 
0 0 0 0 0 0 0 0 0 
0 0 0 0 0 0 0 0 0 
0 0 0 0 0 0 0 0 0 
0 0 0 0 0 0 0 0 0 
0 0 0 0 0 0 0 0 0 
0 0 0 0 0 0 0 0 0 
0 0 0 0 0 2.44579e-11 0 2.69374e-11 0 
0 0 0 0 0 0 0 0 0 
0 0 0 0 2.0128e-11 0 3.31031e-11 0 0 
6.93109e-12 0 0 0 0 0 0 0 0 
2.92538e-11 0 0 0 0 0 0 0 0 
0 1.71392e-11 1.79114e-11 0 0 0 0 0 0 
0 0 0 0 0 0 0 0 0 
0 0 0 0 0 0 0 0 0 
0 1.03543e-12 0 0 0 0 1.12881e-11 0 0 
0 0 0 2.10236e-13 0 0 0 0 0 
0 0 0 0 0 0 0 0 0 
0 0 0 0 0 0 0 0 0 
0 0 0 0 0 0 0 1.7483e-12 0 
0 0 0 8.25299e-13 0 0 0 0 0 
0 0 0 0 0 0 0 0 0 
0 0 0 0 0 0 0 0 0 
0 0 1.12625e-11 0 0 0 0 0 0 
0 0 0 0 0 0 0 0 0 
0 0 0 0 0 0 0 0 0 
0 0 0 0 0 0 0 0 0 
0 0 0 0 0 0 0 0 0 
0 0 0 0 0 0 0 0 0 
0 0 0 0 0 0 0 0 0 
0 0 0 0 4.87746e-12 0 0 0 0 
0 0 0 0 0 0 0 0 0 
0 0 0 0 0 0 0 0 0 
0 0 7.27461e-12 1.96984e-11 0 0 0 1.28449e-11 0 
0 0 0 0 0 0 0 0 0 
0 2.25247e-11 0 0 0 0 0 0 0 
0 0 7.75416e-12 0 0 0 0 0 0 
0 0 0 0 0 0 0 0 0 
0 0 0 0 0 0 0 9.78919e-12 0 
0 0 0 0 1.63282e-12 0 0 0 0 
0 3.18511e-11 0 0 0 0 0 0 7.21813e-13 
1.83329e-11 0 0 0 0 0 0 0 0 
0 0 0 0 0 0 0 0 0 
7.565e-12 0 0 0 0 0 0 1.25763e-11 0 
0 0 0 0 0 0 1.50693e-11 0 0 
0 0 0 0 0 0 0 0 0 
0 0 0 0 1.12527e-13 0 0 0 0 
0 8.71282e-12 0 0 0 0 0 0 0 
0 0 0 0 0 0 0 0 0 
0 2.22856e-12 0 0 0 0 0 0 0 
0 0 0 0 0 0 0 0 0 
0 0 0 2.05431e-11 0 0 0 0 0 
0 0 0 0 0 0 0 0 0 
0 0 0 0 0 0 0 0 0 
0 0 0 0 0 0 0 0 0 
0 0 3.95753e-13 0 0 0 0 0 0 
0 0 0 0 0 0 0 0 0 
0 0 0 0 0 0 0 0 0 
0 0 0 0 0 0 0 0 0 
0 0 0 0 0 0 0 0 0 
0 0 0 0 0 0 0 0 0 
0 2.95273e-12 0 0 0 0 0 0 0 
0 0 1.02666e-11 1.02119e-11 0 1.43218e-11 0 1.39495e-12 0 
3.86792e-11 0 3.51348e-11 0 0 0 0 0 0 
2.00093e-11 0 0 0 0 0 0 0 0 
0 2.72521e-11 0 0 0 0 0 0 2.25998e-12 
0 0 0 0 0 0 0 0 0 
0 0 0 3.96668e-12 0 2.41645e-12 0 0 0 
4.33186e-11 0 0 2.97787e-12 0 1.53195e-11 0 0 0 
0 0 0 0 0 6.87861e-14 6.46613e-12 0 0 
0 0 0 0 0 0 0 0 0 
2.79837e-11 0 0 0 0 0 0 0 0 
0 0 0 0 0 0 0 0 0 
0 0 0 9.73361e-13 0 0 1.56429e-11 0 0 
0 0 0 0 0 0 0 0 0 
0 0 0 0 0 0 0 0 0 
0 0 0 0 0 0 0 1.39109e-13 0 
0 0 0 0 0 0 0 0 0 
0 0 0 9.83555e-13 0 0 0 0 0 
0 0 0 0 0 0 0 0 0 
8.24496e-12 0 0 0 0 0 0 0 0 
0 0 0 0 0 0 0 0 0 
0 0 0 0 0 0 0 0 0 
0 0 0 0 0 0 0 0 0 
0 0 0 0 0 0 0 0 0 
0 0 0 0 0 0 0 0 0 
0 0 0 0 0 0 0 0 4.68785e-13 
0 0 0 0 0 0 1.08806e-11 0 0 
3.10771e-11 0 4.40671e-11 0 0 0 0 0 0 
0 0 0 0 0 0 0 0 0 
0 0 0 0 1.82084e-11 0 3.3359e-11 0 0 
2.68542e-11 2.6185e-11 0 0 0 4.79088e-11 0 0 0 
0 0 0 0 0 0 0 0 0 
0 0 0 2.99751e-11 7.36792e-11 0 0 3.03385e-11 0 
4.86857e-11 0 0 0 0 0 0 0 0 
0 3.80061e-11 0 0 0 0 0 0 0 
0 0 0 0 8.22138e-12 0 0 0 1.23572e-11 
0 0 0 0 0 0 0 0 0 
0 0 0 0 0 0 0 0 0 
0 4.16909e-12 0 5.56299e-11 2.3285e-11 0 0 0 0 
0 0 0 0 9.52073e-12 0 0 0 0 
0 1.31902e-11 0 0 0 0 0 0 0 
0 0 1.79034e-11 0 0 0 0 0 0 
0 0 0 0 0 0 0 0 0 
0 0 0 0 0 0 0 0 0 
0 0 0 0 0 0 0 0 0 
0 0 0 0 0 0 0 0 3.39418e-11 
0 0 0 0 0 0 0 0 0 
0 0 0 0 0 0 0 0 0 
0 0 0 0 0 0 0 0 0 
0 0 0 0 0 0 0 1.32221e-12 0 
0 0 0 0 0 0 0 0 0 
0 0 0 0 0 0 0 0 0 
0 9.02466e-13 0 0 0 0 0 0 0 
0 0 0 0 0 0 0 0 0 
0 0 0 0 0 0 0 0 0 
2.88565e-11 0 0 0 5.64324e-11 0 0 0 0 
0 0 0 0 0 0 0 0 0 
0 0 1.48803e-11 2.52518e-11 0 0 0 0 0 
0 0 0 0 2.32521e-11 0 0 0 0 
0 0 0 0 0 0 0 0 5.9427e-12 
1.92139e-11 0 5.92994e-11 1.07421e-10 0 0 0 0 0 
0 0 0 0 0 0 2.5952e-12 0 0 
3.8884e-11 5.28767e-11 0 0 6.82879e-11 0 2.29585e-11 0 0 
5.19179e-11 0 0 0 0 0 0 0 0 
0 0 0 0 2.38278e-11 0 1.71132e-12 0 0 
0 8.0176e-12 0 0 0 0 0 0 0 
0 0 0 3.32719e-13 5.50868e-11 0 0 1.13538e-11 0 
3.26982e-12 0 0 2.10164e-11 0 0 0 0 0 
0 0 0 0 0 0 0 0 0 
0 1.08775e-11 4.3205e-12 0 0 0 0 0 0 
0 2.92218e-11 0 2.25388e-12 0 0 0 0 0 
0 0 0 0 0 0 2.31667e-12 0 0 
0 0 0 0 0 0 0 4.93262e-12 0 
0 1.41221e-11 0 0 0 0 0 0 0 
0 0 0 0 9.44776e-13 0 0 0 0 
0 0 0 0 0 0 0 0 0 
0 0 0 0 0 0 0 0 0 
0 0 0 0 0 0 0 0 0 
0 0 0 0 0 0 0 0 0 
1.81906e-12 0 0 0 0 0 0 0 0 
0 0 0 0 0 0 0 0 0 
0 0 0 0 0 1.24607e-11 0 0 0 
0 0 0 0 1.46137e-11 0 0 0 0 
0 0 5.08307e-11 0 0 0 0 5.38142e-11 0 
0 0 0 0 0 2.20673e-11 8.19898e-13 0 0 
0 0 0 7.46908e-13 8.81102e-11 0 2.09244e-10 0 0 
0 0 5.18191e-11 3.75556e-11 1.21174e-11 0 0 2.47416e-11 0 
2.31008e-12 0 0 0 0 1.25607e-11 6.28741e-13 0 6.91774e-11 
0 0 0 0 0 0 8.34467e-11 0 0 
0 0 0 0 7.64933e-11 0 0 6.14268e-11 0 
0 0 0 0 0 2.726e-11 5.15022e-14 0 0 
3.78458e-11 0 0 0 0 0 2.3344e-11 0 0 
0 0 0 0 0 0 0 0 0 
0 0 0 0 8.3086e-11 0 1.43825e-10 0 0 
0 3.45484e-11 0 0 0 0 2.91906e-11 0 0 
6.53962e-11 0 4.7043e-11 0 0 2.41059e-11 0 0 0 
0 0 0 0 2.0281e-11 0 0 0 0 
0 0 2.60614e-11 3.27179e-11 0 0 0 0 0 
0 0 0 0 3.89428e-12 0 0 0 0 
0 0 0 0 0 0 0 0 0 
3.35577e-12 0 0 0 0 0 0 0 0 
0 0 2.24223e-11 5.63125e-12 0 0 0 3.93824e-11 0 
0 0 0 0 0 0 0 0 0 
0 0 0 0 0 0 0 0 0 
0 0 0 0 0 0 0 0 0 
0 0 0 0 0 0 0 0 0 
0 0 1.39917e-12 0 0 0 0 0 0 
0 0 0 4.32103e-12 0 0 0 0 0 
0 0 0 0 0 0 0 3.90033e-11 0 
0 0 0 0 0 8.71364e-12 0 0 0 
0 0 0 0 0 5.42443e-11 0 0 0 
0 2.48923e-10 0 0 6.02093e-11 0 8.7765e-13 0 0 
3.27021e-12 0 0 1.59798e-11 0 0 0 0 0 
0 0 0 2.0244e-10 2.42271e-08 0 0 0 4.49329e-11 
0 3.07733e-11 0 0 0 0 0 0 0 
0 0 2.71058e-12 1.4797e-12 2.53897e-10 2.03552e-14 0 0 4.00161e-11 
0 1.40741e-11 0 2.85017e-11 0 0 0 0 6.2776e-11 
0 0 7.12642e-14 0 0 0 0 0 0 
0 0 0 0 0 3.40804e-12 0 0 3.86653e-11 
0 0 0 0 1.74094e-11 0 0 0 0 
0 0 4.55703e-11 0 0 0 0 0 0 
0 0 6.19777e-11 7.16851e-11 0 0 0 0 0 
1.38613e-10 7.05062e-12 0 0 0 9.86785e-11 5.78157e-11 0 0 
9.68462e-13 0 0 0 0 0 0 0 0 
0 1.91969e-11 0 0 0 0 0 0 0 
2.36562e-11 0 0 0 0 3.05104e-11 0 0 0 
0 0 0 0 0 0 0 0 0 
0 0 0 0 0 0 8.69287e-13 7.05836e-12 0 
0 0 1.50797e-11 0 0 0 0 0 0 
0 0 0 7.33506e-11 0 3.8851e-11 0 0 0 
0 0 0 0 0 0 1.75416e-12 0 0 
0 0 0 0 0 0 0 0 0 
0 0 0 0 0 0 0 0 0 
0 0 0 0 0 0 0 0 0 
0 0 0 0 0 0 0 0 0 
0 0 0 0 0 0 0 0 0 
0 0 0 0 1.66418e-11 1.0103e-11 0 0 6.21296e-11 
0 0 0 5.4858e-11 1.38849e-11 3.57679e-11 2.49132e-14 0 0 
0 0 0 0 0 0 0 0 0 
0 4.61888e-11 0 0 0 3.05597e-11 7.58237e-11 0 1.0348e-11 
0 1.33617e-11 0 0 1.31158e-11 2.49029e-11 4.88257e-11 0 0 
0 0 0 0 0 0 4.72025e-11 0 2.79849e-11 
0 0 0 0 0 0 0 2.8459e-11 5.36038e-11 
2.73863e-11 1.30462e-10 2.53251e-08 0 0 0 0 0 0 
2.58209e-11 0 0 0 2.63068e-08 0 0 1.32457e-10 0 
0 7.83817e-14 5.36871e-11 0 2.49648e-11 1.01942e-10 1.48496e-10 0 0 
0 0 0 4.91854e-11 3.14348e-11 1.07798e-11 0 0 0 
0 0 0 2.51375e-11 0 0 0 0 0 
1.24442e-11 0 1.20185e-10 5.31076e-11 0 0 0 0 0 
0 0 0 2.50926e-08 0 0 0 2.74331e-11 0 
9.15889e-11 0 0 1.76155e-10 4.68647e-11 0 0 7.05874e-11 7.21352e-11 
0 0 3.73746e-11 0 0 3.42838e-11 0 0 0 
0 4.82186e-11 0 0 1.93353e-11 0 0 0 0 
0 0 0 9.07106e-13 0 0 0 2.91711e-11 0 
0 3.71891e-12 0 0 0 0 0 0 0 
0 0 0 0 0 0 0 0 0 
0 0 0 0 0 0 0 0 8.79624e-12 
0 0 0 0 0 0 0 0 0 
0 0 1.68205e-11 0 0 0 0 0 0 
0 0 0 0 0 0 0 0 0 
0 0 0 0 0 0 0 0 0 
0 0 0 0 0 0 0 0 0 
0 0 0 0 0 0 0 5.39895e-13 0 
0 0 0 0 0 0 0 0 0 
1.45324e-11 0 0 0 0 8.51124e-11 8.95587e-11 0 0 
0 1.5342e-11 0 0 0 0 0 0 0 
0 0 0 0 0 1.48102e-11 0 0 0 
0 0 0 0 0 0 4.48986e-11 0 0 
0 0 0 0 1.47968e-11 0 7.3664e-11 8.75758e-11 0 
0 0 1.09092e-10 8.14258e-11 0 0 0 0 6.01363e-13 
0 0 0 0 1.41044e-14 4.52638e-11 0 0 0 
1.34243e-10 0 0 0 1.43053e-10 0 0 0 0 
3.27005e-11 0 1.80856e-10 0 0 0 0 0 6.34125e-11 
2.94226e-11 0 6.88402e-11 1.99149e-11 0 0 2.45423e-08 0 0 
3.4558e-11 0 0 0 0 2.51836e-11 2.30554e-11 0 0 
0 0 3.97758e-11 0 0 8.32269e-11 7.99572e-11 0 0 
1.05738e-10 8.63396e-11 3.59898e-11 0 0 0 0 0 1.34493e-10 
0 0 0 3.55287e-11 0 1.72332e-10 0 0 0 
1.14967e-10 0 0 0 5.51558e-11 6.43826e-11 0 5.07406e-12 0 
0 0 6.45593e-12 3.70833e-11 0 0 0 0 3.35216e-13 
0 0 0 0 0 3.18358e-11 0 8.73612e-11 0 
0 0 6.37744e-11 0 2.80454e-11 0 0 0 0 
0 0 0 0 0 0 0 0 0 
0 4.57735e-12 0 0 0 2.49172e-12 0 1.93406e-11 0 
0 0 1.23307e-11 8.58228e-11 1.82454e-11 0 0 0 0 
0 5.64762e-11 0 3.55294e-11 3.75827e-11 0 0 0 1.09284e-11 
0 2.22909e-11 0 0 0 0 0 0 0 
0 0 0 0 0 0 0 0 0 
0 0 0 0 0 0 0 0 0 
0 0 0 0 0 0 0 0 0 
0 0 0 0 0 0 0 0 5.97584e-12 
0 0 0 0 0 0 0 0 0 
0 0 0 5.38848e-11 0 0 0 0 0 
0 0 0 4.73608e-11 4.42022e-11 0 0 0 0 
0 2.61654e-08 0 2.46558e-10 0 0 7.40666e-12 0 0 
0 1.26878e-10 0 0 0 0 0 0 0 
2.87833e-11 0 0 0 0 3.12197e-11 6.47023e-11 0 0 
0 0 4.75258e-12 0 8.0072e-12 0 0 0 0 
0 0 0 0 0 0 4.61299e-11 0 0 
0 0 9.51127e-11 0 3.15335e-11 0 0 0 0 
0 0 0 0 0 0 5.00842e-11 1.29057e-11 0 
0 1.20991e-10 0 0 0 0 3.68584e-10 0 0 
0 0 0 0 0 0 0 1.97911e-11 0 
0 0 0 0 0 2.24819e-10 0 0 5.75006e-11 
0 0 0 4.30015e-11 4.93848e-11 2.34812e-11 0 0 0 
1.33267e-10 0 0 0 0 0 2.7162e-08 2.6521e-10 0 
0 0 1.21289e-10 0 0 9.13876e-11 0 0 0 
1.06489e-11 0 0 0 0 1.02986e-11 0 0 4.67914e-12 
0 5.53659e-11 1.27103e-10 0 0 0 0 4.11061e-11 6.21947e-11 
0 0 0 0 0 0 0 6.82877e-12 0 
0 0 0 0 5.28726e-12 0 0 0 0 
0 0 0 0 3.92957e-11 0 0 0 0 
3.14188e-12 0 6.83334e-11 0 0 0 0 0 0 
0 0 0 6.19638e-11 0 0 0 0 0 
0 0 4.02004e-12 0 0 0 0 0 0 
0 0 0 0 0 0 0 0 0 
0 0 0 0 0 0 0 0 0 
0 0 0 0 0 0 0 0 0 
0 0 0 0 0 0 0 0 0 
0 0 9.37701e-12 0 0 0 0 4.40178e-11 0 
0 6.21958e-11 0 0 2.4618e-08 0 3.36455e-11 0 0 
3.87907e-11 0 3.83785e-11 0 0 0 0 0 0 
3.72647e-10 0 0 0 0 1.65574e-11 1.49792e-10 0 0 
1.51668e-10 0 0 0 8.38934e-11 8.4889e-12 0 0 0 
4.34996e-12 0 4.07229e-11 7.33537e-12 0 0 4.19546e-11 0 0 
0 0 0 2.15051e-11 0 2.55899e-11 0 2.54314e-11 0 
0 0 0 0 0 2.43395e-10 0 0 0 
3.82672e-12 3.03066e-11 6.68464e-11 9.77064e-11 0 0 1.58913e-10 0 0 
4.64412e-11 0 0 5.13935e-12 0 0 1.01896e-10 9.86096e-11 0 
1.46755e-10 0 1.7346e-10 0 0 0 0 5.80154e-11 0 
0 0 2.35818e-11 7.49966e-13 0 0 0 0 0 
4.63295e-11 0 0 2.43653e-08 1.5944e-10 0 1.09846e-10 0 0 
0 0 0 0 0 1.09344e-10 0 0 0 
2.89102e-12 9.87515e-12 0 0 0 1.89081e-10 0 0 2.00978e-10 
0 0 0 0 0 0 8.15046e-11 0 3.76781e-11 
0 0 0 0 0 0 0 0 1.23147e-10 
0 0 0 6.80713e-11 1.63047e-10 0 0 0 0 
0 0 0 3.51013e-12 0 0 0 5.66869e-12 0 
0 0 0 0 0 0 0 0 5.0229e-12 
0 0 0 0 0 1.86489e-12 1.34714e-10 0 8.34166e-11 
0 0 0 2.4821e-08 0 3.12208e-12 0 1.14419e-12 7.05491e-11 
0 0 4.04986e-11 0 2.0811e-11 0 1.1249e-11 0 0 
0 9.93993e-12 0 0 0 0 0 0 0 
0 0 0 0 0 0 0 0 0 
0 0 0 0 0 0 0 0 0 
0 0 0 0 0 0 0 0 0 
0 0 0 0 0 0 0 0 0 
0 0 0 8.43555e-12 0 0 0 0 1.97652e-12 
0 1.79672e-10 8.99254e-11 1.26967e-10 2.77342e-11 0 0 0 0 
0 0 0 0 0 0 0 0 0 
2.31177e-10 0 0 1.53128e-11 0 1.13083e-10 1.57513e-10 4.97992e-11 0 
0 0 0 0 0 0 0 0 0 
3.34e-11 0 0 0 0 4.03944e-11 0 7.57589e-11 0 
0 0 0 0 2.66708e-11 0 0 2.09738e-11 0 
6.70468e-11 0 0 0 1.57453e-10 0 4.27072e-11 1.21237e-12 0 
3.02531e-10 0 0 3.10381e-10 0 0 0 0 0 
0 0 0 3.95617e-11 0 6.52926e-11 0 0 2.35558e-10 
0 0 0 0 4.63127e-11 0 0 0 0 
0 0 0 0 0 0 0 0 1.49948e-11 
0 0 0 0 1.01693e-10 0 0 5.20118e-11 0 
6.95097e-11 0 0 3.17019e-11 0 0 0 0 1.02742e-10 
0 0 0 0 1.61434e-10 2.85638e-10 2.69521e-08 0 0 
0 8.82157e-12 0 0 0 7.03009e-11 0 0 0 
0 8.80834e-12 0 0 7.37721e-11 0 1.78099e-10 8.38405e-11 0 
0 0 0 0 0 5.45054e-11 0 0 0 
0 0 0 0 0 0 0 0 0 
0 0 0 0 0 0 1.40651e-11 0 0 
3.08648e-13 0 0 3.27532e-11 6.03403e-11 0 0 1.82684e-11 3.77904e-11 
0 0 0 0 0 3.7383e-12 0 6.51555e-11 4.40924e-11 
0 0 0 0 0 1.30038e-11 0 0 0 
0 1.13115e-11 0 0 0 0 0 0 0 
0 0 0 0 0 0 0 0 0 
0 0 0 0 0 1.38323e-13 0 0 0 
0 0 0 0 0 0 0 0 0 
0 0 0 0 2.77685e-12 0 0 0 0 
0 0 0 0 0 0 7.12147e-11 1.87626e-11 0 
1.12617e-10 2.93126e-11 3.34536e-11 0 0 0 1.10533e-11 0 2.02367e-10 
0 0 2.77666e-11 0 0 2.83439e-10 0 0 2.18882e-10 
0 0 0 0 2.66418e-08 0 0 3.4905e-11 0 
4.03818e-11 0 0 1.61213e-12 2.8781e-11 0 0 3.95212e-12 0 
0 0 0 0 0 0 0 0 0 
0 0 4.72115e-13 0 0 6.65686e-11 7.14356e-11 2.20832e-11 0 
0 0 0 0 0 0 0 0 0 
0 0 0 0 0 0 0 0 1.22497e-10 
0 1.07378e-11 1.87166e-10 1.11834e-10 7.71502e-12 0 1.87456e-11 0 0 
0 0 0 0 0 1.38676e-11 0 0 3.3291e-12 
1.85644e-12 0 0 9.89979e-11 0 0 0 0 2.83026e-11 
2.90914e-11 0 1.58551e-10 0 0 0 0 0 0 
0 8.28678e-11 0 0 0 0 0 1.34071e-10 0 
0 0 0 2.43855e-10 0 0 0 0 0 
0 0 0 0 0 5.28882e-11 0 0 0 
0 0 0 3.37336e-11 0 0 0 0 0 
0 0 0 5.55581e-11 5.65617e-11 9.53121e-11 8.62524e-11 0 0 
0 0 0 0 0 0 0 0 0 
0 0 0 3.48667e-11 0 0 0 0 0 
0 0 0 3.24937e-11 0 1.36379e-10 5.33192e-11 0 2.77489e-13 
0 1.97454e-10 0 0 0 0 0 0 0 
0 0 0 0 4.24417e-11 0 0 0 0 
0 0 0 0 0 0 0 0 0 
0 0 0 0 0 0 0 0 0 
2.17717e-12 0 0 0 0 0 0 0 0 
0 0 0 0 1.63606e-12 0 0 0 0 
0 0 0 0 0 0 0 0 0 
0 5.17577e-13 5.70749e-11 0 1.02772e-12 4.72386e-11 0 2.40572e-11 2.06435e-11 
0 0 0 0 0 0 0 0 0 
0 1.36979e-10 0 0 0 0 0 0 0 
0 6.76659e-11 2.59498e-10 0 0 9.18345e-11 0 0 0 
3.76911e-11 0 0 1.30005e-11 0 0 0 0 1.76319e-11 
0 0 0 0 0 0 3.33967e-11 0 0 
0 0 0 7.93738e-11 6.9533e-11 0 0 0 2.51215e-12 
1.74335e-10 0 0 3.00728e-08 0 0 0 3.45497e-08 0 
0 0 0 1.62373e-10 0 1.12292e-10 0 7.20601e-11 1.83905e-10 
1.88741e-11 2.03542e-11 8.31985e-11 0 0 0 0 6.15764e-11 0 
5.27873e-11 0 0 0 0 0 9.33529e-12 0 0 
0 0 0 0 0 0 0 0 0 
2.12388e-11 0 0 0 0 0 0 0 0 
0 0 0 1.36345e-11 0 2.66773e-12 0 6.00182e-11 0 
8.4642e-11 0 0 0 0 0 0 9.32761e-11 3.9889e-11 
0 0 0 0 0 0 1.57481e-10 0 0 
0 0 0 0 0 0 0 0 0 
0 0 0 0 0 7.12194e-11 7.29446e-11 0 0 
0 0 0 0 0 0 0 0 0 
0 3.70759e-11 0 6.23456e-11 0 0 0 0 0 
0 0 9.50991e-11 0 0 1.99234e-12 0 0 0 
0 0 5.2451e-11 6.47425e-11 2.41518e-11 1.01728e-10 0 5.41029e-11 1.43645e-10 
0 0 0 0 0 0 0 0 0 
0 0 0 0 0 0 0 0 0 
0 0 0 0 0 0 0 0 0 
0 0 0 0 0 0 0 0 0 
0 0 0 0 0 0 0 0 0 
0 0 0 0 0 0 0 0 0 
0 4.35286e-11 0 8.91962e-11 0 6.11103e-11 0 0 0 
0 0 0 1.18941e-10 4.75183e-11 4.28512e-11 2.41778e-11 1.04561e-10 0 
0 0 0 0 0 0 0 0 0 
0 0 0 0 0 1.83478e-12 0 0 0 
0 0 0 0 0 0 1.00984e-10 0 0 
0 0 8.60362e-11 0 0 0 1.05497e-11 0 0 
0 0 0 0 0 8.14091e-11 0 1.74328e-10 0 
0 0 2.572e-10 0 0 0 0 0 0 
0 0 0 0 2.61448e-08 0 0 0 0 
0 0 0 0 0 0 0 0 0 
0 0 0 0 0 0 0 0 1.68731e-11 
0 0 0 0 1.4214e-11 0 0 0 6.55481e-11 
0 1.43767e-12 0 0 1.42963e-10 0 0 0 0 
5.986e-11 0 0 0 0 0 1.12469e-10 0 8.537e-11 
6.91918e-11 9.75126e-11 0 0 0 0 1.2372e-10 0 0 
1.00375e-10 2.48437e-08 0 0 0 0 4.137e-11 0 0 
0 1.94358e-10 0 0 0 0 2.81959e-08 0 0 
7.25064e-11 0 0 0 0 0 0 0 0 
0 0 0 0 0 0 0 0 0 
0 5.35869e-11 0 0 0 1.02148e-10 6.25033e-11 0 0 
1.7879e-11 0 0 0 0 0 0 0 0 
0 0 0 0 0 0 0 0 8.01095e-11 
4.42073e-11 0 0 0 0 0 0 0 0 
0 0 0 0 0 0 0 0 0 
0 0 1.51912e-12 0 0 0 0 0 0 
0 0 0 0 0 0 0 0 0 
0 0 0 0 0 0 0 0 0 
0 0 0 0 0 0 2.9791e-11 0 0 
0 5.9449e-11 0 0 0 0 9.54637e-13 1.03228e-10 0 
4.0871e-10 0 0 0 2.47906e-11 7.8796e-11 0 0 0 
3.37013e-13 3.83178e-08 3.85119e-08 0 0 0 3.54957e-11 0 0 
0 0 6.85027e-11 6.60281e-12 0 0 6.86467e-13 0 0 
0 0 0 0 0 4.00074e-11 0 1.64644e-12 0 
0 0 2.6061e-11 0 0 0 0 0 0 
0 1.81653e-11 0 0 1.44228e-12 0 0 0 0 
0 0 0 0 3.31162e-08 0 0 2.23386e-10 0 
2.79865e-10 0 2.76852e-10 0 0 1.18639e-11 0 0 1.1871e-11 
0 0 0 0 0 5.41432e-11 0 0 0 
0 0 0 0 0 0 0 0 0 
0 8.29156e-11 0 0 0 0 0 0 0 
0 6.29668e-12 0 0 0 0 0 0 0 
0 0 0 1.1933e-10 0 0 0 1.64984e-10 0 
0 7.64444e-12 0 0 0 0 0 0 0 
0 7.57026e-11 5.56215e-12 0 1.07834e-10 4.93123e-11 0 2.24383e-10 0 
0 0 0 0 9.78701e-11 0 0 0 2.89804e-11 
0 0 0 0 0 0 0 0 0 
0 0 0 0 1.33346e-11 2.03806e-11 0 0 1.78539e-11 
0 0 0 0 2.60149e-10 0 0 1.38484e-10 0 
4.75565e-11 1.25388e-10 0 0 0 1.1386e-10 2.39486e-10 0 0 
0 0 0 0 0 0 0 0 1.32692e-11 
0 0 0 0 1.0757e-11 7.49001e-12 0 0 0 
0 0 0 0 0 0 0 0 0 
0 0 0 0 0 0 0 0 0 
0 0 0 0 0 0 0 0 0 
0 0 0 0 0 0 0 0 0 
0 0 0 0 1.97164e-11 0 0 0 0 
0 0 6.826e-11 0 0 0 0 0 0 
0 1.37576e-11 0 0 4.72878e-11 0 8.69892e-11 0 0 
0 0 2.32564e-10 2.37783e-10 0 9.27687e-11 1.09593e-10 0 0 
0 0 2.81754e-11 0 0 0 0 0 0 
6.23926e-12 0 0 8.27169e-11 0 1.13707e-10 0 0 0 
0 0 0 0 0 0 0 0 0 
0 0 0 0 0 0 1.24962e-11 0 2.44933e-11 
0 4.9496e-10 0 0 0 6.28046e-11 0 1.72266e-11 0 
5.44742e-11 0 0 0 0 0 7.51316e-11 0 0 
0 9.19312e-11 0 0 5.75191e-11 0 0 4.94155e-11 0 
0 0 0 0 0 2.91364e-11 0 0 0 
0 0 0 0 0 0 0 0 0 
0 0 0 0 0 0 0 0 0 
0 4.10202e-11 5.10112e-11 0 0 0 0 0 0 
3.88017e-11 0 0 8.80958e-11 0 0 0 0 0 
0 0 0 0 0 2.63502e-11 0 0 0 
5.76296e-11 0 0 2.29915e-10 0 0 0 3.96285e-11 0 
5.43947e-12 0 0 0 0 0 0 0 0 
0 0 0 0 0 0 0 0 0 
2.05028e-10 1.72548e-10 2.66778e-08 0 0 1.98089e-10 0 0 0 
0 0 5.2644e-11 0 0 2.58539e-11 0 0 0 
0 0 0 1.7568e-11 0 0 0 0 0 
0 0 0 0 0 0 0 0 0 
0 0 0 0 0 0 0 0 0 
0 0 0 0 0 0 0 0 0 
0 0 0 0 0 0 0 0 0 
0 0 0 0 0 0 0 0 0 
0 0 0 0 0 0 0 5.59459e-11 0 
0 2.7373e-11 0 0 0 2.66675e-08 0 3.96395e-10 1.14317e-10 
0 0 0 0 2.86522e-10 3.04707e-10 0 0 0 
6.13206e-11 1.99276e-10 0 0 1.21116e-10 0 0 0 0 
0 0 0 0 0 0 0 0 0 
0 0 0 3.47323e-11 1.08415e-10 1.07166e-10 0 3.11179e-10 0 
0 1.72933e-11 0 0 0 0 6.31596e-11 0 0 
0 0 0 1.09769e-10 2.60106e-11 0 4.08626e-11 2.75356e-12 0 
0 0 4.96527e-11 0 1.0779e-10 8.99537e-12 1.89501e-11 0 0 
9.76514e-11 0 1.02101e-11 1.29337e-11 0 0 0 6.52715e-11 0 
0 0 0 0 0 0 0 0 0 
0 0 0 0 3.00762e-11 0 4.19285e-11 0 0 
0 0 0 0 0 0 0 0 0 