# vtk DataFile Version 5.1
vtk output
ASCII
DATASET STRUCTURED_POINTS
DIMENSIONS 250 250 1
SPACING 1 1 1
ORIGIN 0 0 0
POINT_DATA 62500
FIELD FieldData 6
feature_1 1 62500 float
0 0 0 0 0 0 0 0 0 
0 0 0 0 0 0 0 0 0 
0 0 0 0 0 0 0 0 0 
0 0 0 0 0 0 0 0 0 
0 0 0 0 0 0 0 0 0 
0 0 0 0 0 0 0 0 0 
6.78336e-13 0 0 0 0 0 0 0 0 
0 0 0 0 0 0 0 0 0 
0 0 0 0 0 0 3.10818e-12 0 0 
0 0 0 0 0 0 0 0 0 
2.08566e-12 0 0 0 0 0 0 0 0 
0 0 0 0 0 0 0 0 0 
0 0 0 0 0 0 2.24461e-12 0 0 
0 0 0 0 0 0 0 0 0 
0 0 0 0 0 0 0 0 0 
0 0 0 0 0 0 0 0 0 
3.72945e-13 0 0 0 0 0 0 0 0 
0 0 0 0 0 0 0 0 0 
0 0 0 0 0 0 0 0 0 
0 0 0 0 0 0 0 0 0 
0 0 0 0 0 0 0 0 0 
0 0 0 0 0 0 0 0 0 
0 0 0 0 0 0 0 0 0 
0 0 0 0 0 1.45448e-13 0 0 0 
0 0 0 0 0 1.83076e-13 0 0 0 
0 0 0 0 0 0 0 0 0 
0 0 0 0 0 0 0 0 0 
0 0 0 1.59501e-12 0 0 0 0 0 
4.51262e-14 0 0 0 0 0 0 0 0 
0 0 0 0 0 0 0 0 0 
0 0 0 0 0 0 0 0 0 
0 0 0 0 0 0 0 0 0 
0 0 0 0 0 0 0 4.63353e-13 0 
0 0 0 0 0 0 0 0 0 
0 0 0 0 0 0 0 0 0 
0 0 0 0 2.37393e-12 0 0 0 0 
0 0 0 0 0 0 0 0 0 
0 0 0 0 0 0 0 0 0 
0 0 0 0 0 0 0 0 0 
0 0 0 0 0 0 0 0 0 
0 2.21453e-12 0 0 0 0 0 0 0 
0 0 0 0 0 0 0 0 0 
0 0 0 0 0 0 0 0 0 
0 0 0 0 0 0 0 0 0 
0 0 0 0 0 0 0 0 0 
0 1.46642e-12 0 0 0 0 0 0 0 
7.03897e-13 0 0 0 0 0 0 0 0 
0 0 0 0 0 0 0 0 0 
0 0 0 0 0 0 0 0 0 
0 0 0 0 0 0 0 0 0 
0 0 0 0 0 0 0 0 0 
0 0 0 0 0 0 9.44919e-13 0 0 
0 0 0 0 0 0 0 0 0 
0 0 0 0 0 0 0 0 0 
0 0 0 0 0 0 0 0 0 
0 0 0 0 0 0 0 0 0 
0 0 0 0 0 0 0 0 0 
0 0 0 0 0 0 0 0 0 
0 0 0 0 0 0 0 0 0 
0 0 0 0 0 0 0 0 0 
0 0 0 0 1.86037e-12 0 0 0 0 
0 0 0 0 0 0 1.53187e-12 0 0 
0 0 0 0 0 0 0 0 0 
0 0 0 0 0 0 0 0 0 
0 0 0 0 0 0 0 0 0 
0 0 0 0 0 0 0 0 0 
0 0 0 0 0 0 0 0 0 
0 0 0 0 0 0 0 0 0 
0 0 0 0 0 0 0 0 0 
0 0 0 0 0 0 0 0 6.1807e-13 
0 0 0 0 0 0 0 0 0 
0 0 0 0 0 0 0 0 0 
0 0 0 0 0 0 0 0 0 
0 0 0 0 0 0 0 0 0 
0 0 0 0 0 0 0 0 0 
0 0 0 0 0 0 0 0 0 
0 0 0 0 0 0 0 0 0 
0 0 0 0 0 0 0 0 0 
0 0 0 0 0 0 0 0 0 
0 0 0 0 0 0 0 0 0 
0 0 0 0 0 0 0 0 0 
0 0 0 0 0 0 0 0 0 
0 0 0 0 0 0 0 0 0 
0 0 0 0 0 0 0 0 0 
0 0 0 0 0 0 0 0 0 
0 0 0 0 0 0 0 0 0 
0 0 0 0 0 0 0 0 0 
0 0 0 0 0 0 0 0 0 
0 0 0 0 0 0 0 0 0 
0 0 0 0 0 0 0 0 0 
0 0 0 0 0 0 0 0 0 
0 0 0 0 0 0 0 0 0 
0 0 0 6.15438e-13 0 0 0 0 0 
0 0 0 0 0 0 0 0 0 
0 0 0 0 0 0 0 0 0 
0 0 0 0 0 0 0 0 0 
0 0 0 0 0 0 0 0 0 
0 0 0 0 0 0 0 0 0 
0 0 0 0 0 0 0 0 0 
0 0 0 0 0 0 0 0 0 
0 0 0 1.38724e-12 0 0 0 0 0 
0 0 0 0 0 0 0 0 0 
0 0 0 0 0 0 0 0 0 
0 0 0 0 0 0 0 0 0 
0 0 0 0 0 0 0 0 0 
0 0 0 0 0 0 0 0 0 
0 0 0 0 0 0 0 0 0 
0 0 0 0 0 0 0 0 2.62117e-14 
0 0 5.11143e-13 0 0 0 0 0 0 
0 0 0 0 0 0 0 0 0 
0 0 0 0 0 0 0 0 0 
0 0 0 0 0 0 0 0 0 
0 0 0 0 0 0 0 0 0 
0 0 0 0 0 0 0 0 0 
0 0 0 0 0 0 0 0 0 
0 0 0 0 0 0 0 0 0 
0 0 0 0 0 0 0 0 0 
0 0 0 0 0 8.41199e-13 0 0 0 
0 0 0 0 0 0 0 0 0 
0 0 0 0 0 0 0 0 0 
0 0 0 0 0 0 0 0 0 
0 0 0 0 0 0 0 0 0 
0 0 0 0 4.03544e-12 0 0 0 0 
0 0 0 1.37903e-12 0 0 0 0 0 
0 0 0 0 0 0 0 6.92512e-13 0 
0 0 0 0 0 0 0 0 0 
0 0 0 0 0 0 0 0 0 
0 0 0 0 0 0 0 0 0 
0 0 0 0 0 0 0 6.11149e-12 0 
0 0 0 0 0 0 0 0 0 
0 0 0 0 0 0 0 0 0 
0 0 0 0 0 0 0 0 0 
0 0 0 0 0 0 0 0 0 
0 0 0 0 0 0 0 0 0 
0 0 0 0 0 0 0 0 0 
0 0 0 0 0 0 0 0 0 
0 0 0 0 0 0 0 2.57459e-12 0 
0 0 0 0 0 0 0 0 0 
0 0 0 0 0 0 0 0 0 
0 0 0 0 0 0 0 0 0 
0 0 0 0 0 0 0 0 0 
0 0 0 7.54365e-13 0 0 0 1.88915e-12 0 
0 0 0 0 0 0 0 0 0 
0 0 0 0 0 0 0 0 0 
0 0 0 0 0 0 0 0 0 
0 0 0 0 0 0 0 0 0 
0 0 0 0 0 0 0 0 0 
0 0 0 0 0 0 0 0 0 
0 0 0 0 0 0 0 0 0 
0 0 0 0 0 0 0 0 0 
0 0 0 0 0 0 0 0 0 
0 0 0 0 0 0 0 0 0 
0 0 0 0 0 0 0 0 0 
0 0 0 0 0 0 0 0 0 
0 0 0 0 0 0 0 0 0 
0 0 0 0 0 0 0 0 0 
0 0 0 0 0 0 0 0 0 
0 0 0 0 0 1.01797e-12 0 0 0 
0 0 0 0 0 0 0 0 0 
0 0 0 0 0 0 0 0 0 
0 0 0 0 0 9.96996e-13 0 0 0 
0 0 0 0 0 0 0 0 0 
0 0 0 0 0 0 0 0 0 
0 0 0 0 0 0 0 0 0 
0 0 0 0 0 0 0 0 0 
0 0 0 0 0 0 0 0 0 
0 0 0 0 0 0 0 0 0 
0 0 0 0 0 0 0 0 0 
0 0 0 0 0 0 0 0 1.96406e-13 
0 0 0 0 0 0 0 0 0 
0 0 0 0 0 0 0 0 0 
0 0 0 0 0 0 0 0 0 
0 0 0 0 0 0 0 0 0 
0 0 0 0 0 0 0 0 0 
0 0 0 0 0 0 0 0 0 
0 0 0 0 0 0 0 0 0 
0 0 0 0 0 0 0 0 9.08321e-13 
0 0 0 0 0 0 0 0 0 
0 0 0 0 0 0 1.42502e-12 0 0 
0 0 0 0 0 0 0 0 0 
0 0 0 1.5678e-12 0 0 0 0 0 
0 0 0 0 0 0 0 0 0 
0 0 0 0 0 0 0 0 0 
0 0 0 0 0 0 0 0 0 
0 0 0 0 0 0 0 0 0 
0 0 0 0 0 0 0 0 0 
0 0 0 0 0 0 0 0 0 
0 0 0 0 0 0 0 0 0 
0 0 0 0 0 0 0 0 0 
0 0 0 0 0 0 0 0 0 
0 0 0 0 0 0 0 0 0 
0 0 0 0 0 0 0 0 0 
0 0 0 0 0 0 0 0 0 
0 0 0 0 0 0 3.78794e-13 0 0 
0 0 0 0 0 0 0 0 0 
1.40339e-15 0 0 0 0 0 0 0 0 
0 0 0 0 0 0 0 0 0 
0 0 0 0 0 0 0 0 0 
0 0 0 0 0 0 0 0 0 
0 0 0 0 0 0 0 0 0 
0 0 0 0 0 0 0 0 0 
0 0 0 0 0 0 0 0 0 
0 0 0 0 0 0 0 0 0 
0 0 0 0 0 0 0 0 0 
0 0 0 0 0 0 0 0 0 
0 0 0 0 0 0 0 0 0 
0 0 0 0 0 0 0 0 0 
0 0 0 0 0 0 0 0 0 
0 0 0 0 0 0 0 0 0 
0 0 0 0 0 0 0 0 0 
0 0 0 0 0 0 0 0 0 
0 0 0 0 0 0 0 0 0 
0 0 0 0 0 0 0 0 0 
0 0 0 0 0 0 0 0 0 
0 0 0 0 0 0 0 0 0 
0 0 0 0 0 0 0 8.61346e-13 0 
0 0 0 0 0 0 0 0 0 
0 0 0 0 0 0 0 0 0 
0 0 0 0 0 0 0 0 0 
0 0 0 0 0 0 0 0 0 
0 0 0 7.6634e-14 0 0 0 0 0 
0 0 0 0 0 0 0 0 0 
0 0 0 0 0 0 0 0 0 
0 0 0 0 0 0 0 0 0 
0 0 0 0 0 0 0 0 0 
0 0 0 0 0 0 0 0 0 
0 0 0 0 0 0 0 0 0 
0 0 0 0 0 0 0 0 0 
0 0 2.01062e-12 0 0 0 0 0 0 
0 0 0 0 0 0 0 4.8565e-13 0 
0 0 0 0 0 0 0 0 0 
0 0 0 0 0 0 2.95122e-12 0 0 
0 0 0 0 9.34863e-13 0 0 0 0 
0 0 0 0 0 1.47885e-13 0 0 0 
0 0 0 0 0 0 0 0 0 
0 0 0 0 0 0 0 0 0 
0 0 0 0 0 0 0 0 0 
0 0 0 0 0 0 0 0 0 
0 0 0 0 0 0 0 0 0 
0 0 0 0 0 0 0 0 0 
0 0 0 0 0 0 0 0 0 
0 0 0 0 2.58698e-12 0 0 0 0 
0 0 0 0 0 0 0 0 0 
0 0 0 0 0 0 0 0 0 
0 0 0 0 0 0 0 0 0 
0 0 0 0 0 0 0 0 0 
0 0 0 0 0 0 0 0 0 
0 0 0 0 0 0 0 0 0 
0 0 0 0 0 0 0 0 0 
0 0 0 0 0 0 0 0 0 
0 0 0 0 0 0 0 0 0 
0 0 0 0 0 0 0 0 0 
0 0 0 0 0 0 0 0 0 
0 0 0 0 0 0 0 0 0 
0 0 0 0 0 0 0 0 0 
0 0 0 0 0 0 0 0 0 
0 0 0 0 0 0 0 0 0 
0 0 0 0 0 0 0 0 0 
0 0 0 0 0 0 0 0 0 
0 0 0 0 0 0 0 0 0 
0 0 0 0 0 0 0 0 0 
0 0 0 0 0 0 0 0 0 
0 0 0 0 0 0 0 0 0 
0 0 0 0 0 0 0 0 0 
0 0 0 0 0 0 0 0 0 
0 0 0 0 0 0 0 0 0 
0 0 0 0 0 0 0 0 0 
0 0 0 0 0 0 0 0 0 
0 0 0 0 0 0 0 0 0 
0 0 0 0 0 0 0 0 0 
0 0 0 0 0 0 0 0 0 
0 0 0 0 0 0 0 0 0 
0 0 0 0 0 0 0 0 0 
0 0 0 0 0 0 0 0 0 
0 0 0 0 0 0 0 0 0 
0 0 0 0 0 0 0 0 0 
0 0 0 0 0 0 0 0 0 
0 0 0 0 0 0 0 0 0 
0 0 0 0 0 0 0 0 0 
0 0 0 0 0 0 0 0 0 
0 0 0 0 0 0 0 0 0 
0 0 0 0 0 0 0 0 0 
0 0 0 0 0 0 0 0 0 
0 0 0 0 0 0 0 0 0 
0 0 0 0 0 0 0 0 0 
0 0 0 0 0 0 0 0 0 
0 0 0 0 0 0 0 0 0 
0 0 2.73914e-12 0 0 0 0 0 0 
0 0 0 0 0 0 0 0 0 
0 0 0 0 0 0 0 0 0 
0 0 0 0 0 0 0 0 0 
0 0 0 0 0 0 0 0 0 
0 0 0 0 0 0 0 0 0 
0 0 0 0 0 0 0 0 0 
0 0 0 0 0 0 0 0 0 
0 0 0 0 0 0 0 0 0 
0 0 0 0 0 0 0 0 0 
0 0 0 0 0 0 0 0 0 
0 0 0 0 0 0 0 0 0 
0 8.11186e-13 0 0 0 0 0 0 0 
0 0 0 0 0 0 0 0 0 
0 0 0 0 0 0 0 0 0 
0 0 0 0 0 0 0 0 0 
0 0 0 0 0 0 0 0 0 
0 0 0 0 0 0 0 0 0 
0 0 0 0 0 0 0 0 0 
0 0 0 0 0 0 0 0 0 
0 0 0 0 0 0 0 0 0 
0 0 0 0 0 0 0 0 0 
0 0 0 0 0 0 0 0 0 
0 0 0 0 0 0 0 0 0 
0 0 0 0 0 0 0 0 0 
0 0 0 0 0 0 0 0 0 
0 0 0 0 0 0 0 9.54295e-13 0 
0 0 0 0 0 0 0 0 0 
0 0 0 0 0 0 0 0 0 
0 0 0 0 0 0 0 0 0 
0 0 0 0 0 0 0 0 0 
0 0 0 0 0 0 0 0 0 
0 0 0 0 0 0 0 0 0 
0 0 0 0 0 0 0 0 0 
0 0 0 0 0 0 0 0 0 
0 0 0 0 0 0 0 0 0 
0 0 0 0 0 0 0 0 0 
0 0 0 0 0 0 0 0 0 
0 0 0 0 0 0 0 0 0 
0 0 0 4.60866e-13 0 0 0 0 0 
0 0 0 0 0 0 0 0 0 
0 0 0 0 0 0 0 0 0 
0 0 0 0 0 0 0 0 3.40831e-12 
0 0 0 0 0 0 0 0 0 
0 0 0 0 0 0 0 6.83717e-13 0 
0 0 0 0 0 0 0 0 0 
0 0 0 0 0 0 0 0 0 
0 0 0 0 0 0 0 0 0 
0 0 0 0 0 0 0 0 0 
0 0 0 0 0 0 0 0 0 
0 0 0 0 0 0 0 0 0 
0 0 0 0 0 0 0 0 0 
0 1.99299e-12 0 0 0 0 0 0 0 
0 0 0 0 0 0 0 0 0 
0 0 0 0 0 0 0 0 0 
0 0 0 0 0 0 0 0 0 
0 0 0 0 0 0 0 0 0 
0 0 0 0 0 0 0 0 0 
0 0 0 0 0 0 0 0 0 
0 0 1.39918e-12 0 0 0 0 0 0 
0 0 0 0 0 0 0 0 0 
0 0 0 0 0 0 0 0 0 
0 0 2.56266e-13 0 0 0 0 0 0 
0 0 0 0 0 0 0 0 0 
0 0 0 0 1.9257e-12 0 0 0 0 
0 0 0 0 0 0 0 0 0 
0 0 0 0 0 0 0 0 0 
0 0 0 0 0 0 0 0 0 
0 0 0 0 0 0 0 0 0 
0 0 0 0 0 0 0 0 0 
0 0 0 0 0 0 0 0 0 
0 0 0 0 0 0 0 0 0 
0 0 0 0 0 7.11916e-13 0 0 0 
0 0 0 0 0 0 0 0 0 
0 0 0 0 0 0 0 0 0 
0 0 0 0 1.74824e-12 0 0 0 0 
0 0 0 0 0 0 0 0 0 
0 0 0 0 0 0 0 0 0 
0 0 0 0 0 0 0 0 0 
0 0 0 0 0 0 0 0 0 
0 0 0 0 0 0 0 0 0 
0 0 0 0 0 0 0 0 0 
0 0 0 0 0 0 0 0 0 
0 0 0 0 0 0 0 0 0 
0 0 0 0 0 0 0 0 0 
0 0 0 0 0 0 0 0 0 
0 0 0 0 0 0 0 0 0 
0 0 0 0 0 0 0 0 0 
0 0 0 0 0 0 0 0 0 
0 0 0 0 0 0 0 0 0 
0 1.22754e-12 0 0 0 0 2.04541e-12 0 0 
0 0 0 0 0 0 0 0 0 
6.10259e-12 0 0 0 0 0 0 0 0 
0 0 0 0 0 0 0 0 0 
0 0 0 0 0 0 0 0 0 
0 0 0 0 0 0 0 0 0 
0 0 0 0 0 0 0 0 0 
0 0 0 0 0 0 0 0 0 
0 2.74666e-12 0 0 0 0 0 0 0 
0 0 0 0 0 0 0 0 0 
0 0 0 0 0 0 0 0 0 
0 0 0 0 0 0 0 0 0 
0 0 0 0 0 0 0 0 0 
0 0 0 0 0 0 0 0 0 
0 0 0 0 0 0 0 0 4.60523e-12 
0 0 2.9503e-13 0 0 0 0 0 0 
0 0 0 0 0 0 0 0 0 
0 0 0 0 0 0 0 0 0 
0 0 0 0 0 0 0 0 0 
0 0 0 0 0 0 0 0 0 
0 0 0 0 0 0 0 0 0 
0 0 0 0 0 0 0 0 0 
0 0 0 0 0 0 0 0 0 
0 0 0 0 0 0 0 0 0 
0 0 0 0 0 0 0 0 0 
0 0 0 0 0 0 0 0 0 
0 0 0 0 0 0 0 0 0 
0 0 0 0 0 0 0 0 0 
0 0 0 0 0 0 0 0 0 
0 0 0 0 0 0 0 0 0 
0 0 0 0 0 0 0 0 0 
0 0 0 0 0 0 0 0 0 
0 0 0 0 0 0 0 0 0 
0 0 0 0 0 0 0 0 0 
0 0 0 0 0 0 0 0 0 
0 0 0 0 0 0 0 0 0 
0 0 0 0 0 0 0 0 0 
0 0 0 0 0 0 0 0 0 
0 0 0 0 0 0 0 0 0 
0 0 0 0 0 0 0 0 0 
0 0 0 0 0 0 0 0 0 
0 0 0 0 0 0 0 0 0 
0 0 0 0 0 0 0 0 0 
0 0 0 0 0 0 0 0 0 
0 0 0 0 0 0 0 0 0 
0 0 0 0 0 0 0 0 0 
0 0 0 0 0 0 0 0 0 
0 2.40062e-13 0 0 1.02218e-12 0 0 0 0 
0 0 0 0 0 0 0 0 0 
0 0 0 0 0 0 0 0 0 
0 0 0 0 0 0 0 0 0 
4.17557e-12 0 0 0 0 0 0 0 0 
0 0 0 0 0 0 0 0 0 
0 0 0 0 0 0 0 0 0 
0 0 0 0 0 0 0 0 0 
0 0 0 0 0 0 0 0 0 
0 0 0 0 0 0 0 0 0 
0 0 0 0 0 0 0 0 0 
0 0 0 0 0 0 0 0 0 
0 0 0 0 0 0 0 0 0 
0 0 0 0 0 0 0 0 0 
0 0 0 0 0 0 0 0 0 
7.70319e-13 1.65045e-12 0 0 0 0 0 0 0 
0 0 0 0 0 0 2.17123e-12 0 0 
0 2.16942e-12 2.85742e-12 0 0 0 0 0 0 
0 0 0 0 0 0 0 0 0 
0 0 0 0 0 0 0 9.08295e-13 0 
0 0 0 0 0 0 0 0 0 
0 0 0 0 0 0 0 0 0 
0 0 0 0 0 0 0 0 0 
0 0 0 2.10505e-12 0 0 0 0 0 
0 0 0 0 0 0 0 0 0 
0 0 0 0 0 0 0 0 0 
0 0 0 0 0 0 0 0 0 
0 0 0 0 2.73224e-12 0 0 0 0 
2.72681e-14 0 0 0 0 0 0 0 0 
0 0 0 0 0 0 0 0 0 
0 0 0 0 0 0 0 0 0 
0 0 0 0 0 0 0 0 0 
0 0 0 0 0 0 0 0 0 
0 0 0 0 0 0 0 0 0 
0 0 0 0 0 0 0 0 0 
0 0 0 0 0 0 0 0 0 
0 0 0 0 5.67828e-12 0 0 0 0 
0 0 0 0 0 0 0 0 0 
0 0 0 0 0 0 0 0 0 
0 0 0 0 0 0 0 0 0 
0 0 0 0 0 0 0 0 0 
0 0 0 0 0 0 0 0 0 
0 0 0 0 0 0 0 0 0 
0 0 0 0 0 0 0 0 0 
0 0 0 0 0 0 0 0 0 
0 0 0 0 0 0 0 0 0 
0 0 0 0 0 0 0 0 0 
0 0 0 0 0 0 0 0 0 
0 0 0 0 0 0 0 0 0 
0 0 0 0 0 0 0 0 0 
0 0 0 0 0 0 0 0 0 
0 0 0 0 0 0 0 0 0 
0 0 0 0 0 0 0 0 0 
0 0 0 0 0 0 0 0 0 
0 0 0 0 0 0 0 0 0 
0 0 0 0 0 0 0 0 0 
0 6.23436e-12 0 0 0 0 0 0 0 
0 0 0 0 0 0 0 0 1.89385e-12 
0 0 0 0 0 0 0 0 0 
0 0 0 0 0 0 0 0 0 
0 0 0 0 0 0 0 0 0 
0 0 0 0 0 0 0 0 0 
0 0 0 0 0 0 0 0 0 
0 0 0 0 0 0 0 0 0 
0 0 0 0 0 0 0 0 0 
0 0 0 1.32105e-12 0 0 0 0 0 
0 0 0 0 0 0 0 0 0 
0 0 0 0 0 0 0 0 0 
0 0 0 0 0 0 0 0 0 
0 0 0 0 0 0 0 0 0 
0 0 0 0 0 0 0 0 0 
0 0 0 0 0 0 0 0 0 
0 4.99487e-12 0 0 0 0 0 0 0 
0 0 0 0 0 0 0 0 0 
0 0 0 0 0 0 0 0 0 
0 0 0 0 0 0 0 0 0 
0 0 0 0 0 0 0 0 0 
0 0 0 0 0 0 0 0 0 
0 0 0 0 0 0 0 0 0 
0 0 0 0 0 0 0 0 0 
0 0 0 0 0 0 0 0 0 
0 0 0 0 0 0 0 0 0 
0 0 0 0 3.55083e-12 0 0 0 5.29877e-13 
0 0 0 0 0 0 0 0 7.47796e-12 
0 0 0 0 0 0 0 0 0 
0 0 0 0 0 0 0 0 0 
0 0 0 4.94889e-12 0 0 0 0 0 
0 0 0 0 0 0 0 0 0 
0 0 0 1.1033e-11 0 0 0 0 0 
0 0 0 0 0 0 0 0 0 
0 0 0 0 0 0 0 0 0 
0 0 0 0 0 0 0 0 0 
0 0 0 0 0 0 0 0 0 
0 0 0 0 0 0 0 0 0 
0 0 0 0 0 0 0 0 0 
0 0 1.08287e-12 0 0 0 0 0 0 
0 0 0 0 0 0 0 0 0 
0 0 0 0 0 0 0 0 0 
0 0 0 0 0 0 0 0 0 
0 0 0 0 0 0 0 0 0 
0 0 0 0 0 0 0 0 0 
0 0 0 0 0 0 0 0 0 
8.12314e-13 0 0 0 0 0 0 0 0 
0 0 0 0 0 0 0 0 0 
0 0 0 0 0 0 0 0 0 
0 0 0 0 0 0 0 0 0 
0 0 0 0 0 0 0 0 0 
0 0 0 0 0 0 0 0 0 
0 0 0 0 0 0 0 0 0 
0 0 0 0 0 0 0 0 0 
0 0 0 0 0 0 0 0 0 
0 0 0 0 0 0 0 0 0 
0 0 0 0 0 0 0 0 0 
0 0 0 0 5.85117e-13 0 0 0 2.95227e-12 
0 0 0 2.12019e-12 4.33033e-13 0 0 0 0 
0 0 0 0 0 0 0 0 0 
0 0 0 0 0 0 0 2.25656e-13 0 
0 0 0 0 0 0 0 0 0 
0 0 0 0 0 0 0 0 0 
0 0 0 0 0 0 0 0 0 
0 0 0 0 0 0 0 0 0 
0 0 0 0 0 0 0 0 0 
0 0 0 0 0 0 0 0 0 
0 0 0 0 0 0 0 2.48265e-12 0 
0 0 0 0 0 0 0 0 0 
0 0 0 0 0 0 0 0 0 
0 0 0 0 0 0 0 0 0 
0 0 0 0 0 0 0 0 0 
0 0 1.77568e-13 0 0 0 0 0 0 
0 0 0 0 0 0 0 0 0 
0 0 0 0 0 0 0 0 0 
0 0 0 0 0 0 0 0 0 
0 0 0 0 0 0 0 0 0 
0 0 0 0 0 0 0 0 0 
0 0 0 0 0 0 0 0 0 
0 0 0 0 0 0 0 0 0 
0 0 0 0 0 0 0 0 0 
0 0 0 0 0 0 0 2.9002e-13 0 
0 0 0 0 0 0 0 0 0 
1.8859e-11 4.07152e-13 0 0 2.54927e-11 6.6336e-12 0 0 0 
0 0 0 0 0 0 0 0 0 
0 2.53123e-11 0 0 0 0 0 0 1.68017e-11 
0 0 0 0 0 4.13506e-14 0 0 0 
0 0 0 0 0 0 0 0 0 
0 0 0 0 0 0 0 0 0 
0 0 6.12913e-13 0 0 0 0 0 0 
0 0 0 0 0 0 0 0 2.79349e-12 
0 0 0 0 0 0 0 0 0 
0 0 0 0 0 0 0 0 0 
0 0 0 0 0 0 0 0 0 
0 0 0 0 0 0 0 0 0 
0 0 0 0 0 0 0 0 0 
0 0 0 0 0 0 0 0 0 
0 0 0 0 0 0 0 0 0 
0 1.98157e-12 0 0 0 1.76266e-13 0 0 0 
0 0 0 0 0 0 0 0 0 
0 0 1.43194e-12 0 0 0 0 0 0 
0 0 0 0 0 0 0 0 0 
0 0 0 0 0 0 1.17269e-12 0 0 
0 1.26842e-12 0 0 0 0 0 0 0 
0 0 0 0 0 0 0 0 0 
0 0 0 0 0 0 0 0 0 
0 0 0 0 0 0 0 0 0 
0 0 0 0 0 0 0 0 0 
0 0 0 0 0 0 0 0 0 
0 0 5.55511e-12 0 0 0 0 0 0 
0 0 0 0 0 1.73352e-11 1.30672e-11 0 0 
0 0 0 0 0 0 0 0 0 
0 0 3.60761e-12 0 0 0 0 0 0 
0 0 0 0 0 0 0 0 0 
5.73634e-12 0 0 0 0 1.92175e-11 0 0 0 
0 0 0 0 0 8.47195e-12 0 0 0 
0 0 0 0 0 0 0 0 0 
0 0 0 0 0 0 0 0 0 
0 0 0 0 0 0 0 0 0 
0 0 0 0 0 1.03175e-11 0 1.86228e-11 0 
0 0 0 0 0 0 0 0 0 
0 0 0 0 0 0 0 0 0 
0 0 0 0 0 0 0 0 0 
0 0 0 0 0 0 0 0 0 
0 0 0 0 0 0 0 0 0 
0 0 0 0 0 0 0 0 0 
0 0 0 0 0 0 0 6.78405e-12 0 
0 0 0 0 0 0 0 0 0 
0 0 0 0 0 0 0 0 0 
0 0 0 0 0 0 0 0 0 
0 0 0 0 0 0 0 0 0 
0 0 0 0 0 0 0 0 0 
0 0 2.16431e-12 0 0 0 0 0 0 
0 0 0 0 0 0 0 0 0 
0 0 0 0 0 0 0 0 0 
0 0 0 0 0 0 0 0 0 
0 0 0 0 0 0 0 0 0 
0 0 0 0 0 0 0 0 0 
0 0 0 0 0 1.68617e-11 0 2.95236e-11 0 
0 0 0 0 0 0 0 0 0 
0 0 0 0 2.76418e-11 0 3.3288e-11 0 0 
3.49432e-12 0 0 0 0 0 0 0 0 
3.03999e-11 0 0 2.6532e-12 0 0 0 0 0 
0 1.86999e-11 1.78759e-11 0 0 0 0 0 0 
0 0 0 0 0 0 0 0 0 
0 0 0 0 5.69718e-12 0 0 0 0 
0 0 0 0 0 0 5.54127e-12 0 0 
0 0 0 0 0 0 0 0 0 
0 0 0 0 0 0 0 0 0 
0 0 0 0 0 0 0 0 0 
0 0 0 0 0 0 0 0 0 
0 0 0 0 0 0 0 0 0 
0 0 0 0 0 0 0 0 0 
0 0 0 0 0 0 0 0 0 
0 0 5.7657e-12 0 0 0 0 0 0 
0 0 0 0 0 0 0 0 0 
0 0 0 0 0 0 0 0 0 
0 0 0 0 0 0 0 0 0 
0 0 0 0 0 0 0 0 0 
0 0 0 0 0 0 0 0 0 
0 0 0 0 0 0 0 0 0 
0 0 0 0 2.9732e-12 0 0 0 0 
0 0 0 0 0 0 0 0 0 
0 0 0 0 0 0 0 0 0 
0 0 9.22743e-12 2.77601e-11 0 0 0 9.55873e-12 0 
0 0 0 0 0 0 0 0 0 
0 2.90426e-11 0 2.34571e-12 0 0 0 0 0 
0 0 3.55972e-12 0 0 0 0 0 0 
0 0 0 0 0 0 0 0 0 
0 0 0 0 0 0 0 1.30999e-11 0 
0 0 0 0 0 0 0 0 0 
0 3.4392e-11 0 0 0 0 0 0 0 
1.0033e-11 0 0 0 0 0 0 0 0 
0 0 0 0 0 0 0 0 0 
1.01882e-11 0 0 0 0 0 0 5.70824e-12 0 
0 0 0 0 0 0 1.31793e-11 0 0 
0 0 0 0 0 0 0 0 0 
0 1.00015e-12 0 0 0 0 0 0 0 
0 0 0 0 0 0 0 0 0 
0 0 0 0 0 0 0 0 0 
0 0 0 0 0 0 0 0 0 
0 0 0 0 0 0 0 0 5.66701e-12 
0 0 0 1.32807e-11 0 0 0 0 0 
0 0 0 0 0 0 0 0 0 
6.56959e-13 0 0 0 0 0 0 0 0 
0 0 0 0 0 0 0 0 0 
0 0 0 0 0 0 9.98551e-13 0 0 
0 0 0 0 0 0 0 0 0 
0 0 0 0 0 0 0 0 0 
0 0 0 0 1.51959e-12 0 0 0 0 
0 0 0 0 0 1.8611e-12 0 0 0 
0 0 0 0 0 0 0 0 0 
0 0 0 0 0 0 0 0 0 
0 0 1.2759e-11 1.53854e-11 0 1.19668e-11 0 4.47623e-13 0 
4.19868e-11 0 3.73426e-11 0 0 0 0 0 0 
2.49116e-11 0 0 0 0 0 0 0 0 
0 2.83162e-11 0 0 0 0 0 5.52459e-11 0 
0 0 0 0 0 0 0 0 0 
0 0 0 0 0 0 0 0 0 
3.94437e-11 0 0 4.41219e-12 0 9.07038e-12 0 0 0 
0 0 0 0 0 0 3.98676e-12 0 0 
0 0 0 0 0 0 0 9.26521e-13 0 
2.75649e-11 0 0 0 0 0 0 0 0 
0 0 0 0 0 0 1.2905e-13 0 0 
0 0 0 1.13462e-11 0 0 1.50663e-11 0 0 
0 0 0 0 0 0 0 0 0 
0 0 0 0 0 0 0 0 0 
0 0 0 0 0 0 0 0 0 
0 0 0 0 0 0 0 0 0 
0 0 0 0 0 0 0 0 0 
0 0 0 0 0 0 0 0 0 
6.40118e-12 0 0 0 0 0 0 0 0 
0 0 0 0 0 0 0 0 0 
0 0 0 0 0 0 0 0 0 
0 0 0 0 0 0 0 0 0 
0 0 0 0 0 0 0 0 0 
9.11854e-13 0 0 0 0 0 0 0 0 
0 0 0 0 0 0 0 0 0 
0 0 0 0 0 0 5.23188e-12 0 0 
3.13388e-11 0 4.35508e-11 0 0 0 0 0 0 
0 0 0 0 0 0 0 0 0 
0 0 0 0 2.29242e-11 0 3.28666e-11 0 0 
2.83943e-11 3.28766e-11 0 0 0 4.59849e-11 0 0 0 
0 0 0 0 0 0 0 0 0 
0 0 0 2.59556e-11 7.03345e-11 0 0 2.50623e-11 0 
5.23114e-11 0 0 0 0 0 0 0 0 
0 3.47371e-11 0 5.06853e-11 0 0 0 0 0 
0 0 0 0 1.64364e-11 0 0 0 1.87674e-11 
0 0 0 0 0 0 0 0 0 
0 0 0 0 0 0 0 0 0 
0 0 0 5.32734e-11 2.40673e-11 0 0 0 0 
0 0 0 0 1.31654e-11 0 0 0 0 
0 1.19511e-11 0 0 0 0 0 0 0 
0 0 1.64383e-11 0 6.64278e-14 0 0 0 0 
3.38521e-12 0 0 0 0 0 1.3092e-12 0 0 
1.22887e-12 0 0 0 0 0 0 0 0 
0 0 0 0 0 0 0 0 0 
0 0 0 0 0 0 0 0 2.73439e-11 
0 0 0 0 0 0 0 0 0 
0 0 0 0 0 0 0 0 0 
0 0 0 0 0 0 0 0 0 
0 0 0 0 0 0 0 5.93449e-14 0 
0 0 0 0 0 0 0 0 0 
0 0 0 0 0 0 0 0 0 
0 0 0 0 0 0 0 0 0 
0 0 0 0 0 0 0 0 0 
0 0 0 1.47906e-12 0 0 0 0 0 
3.31418e-11 0 0 0 5.19032e-11 0 0 0 0 
0 0 0 0 0 0 0 0 0 
0 0 1.43127e-11 1.7939e-11 0 0 0 0 0 
0 0 0 0 1.67662e-11 0 0 0 0 
0 0 0 0 0 8.07345e-11 0 0 4.70487e-12 
1.90009e-11 0 6.31988e-11 1.06275e-10 0 0 0 0 0 
0 0 0 0 0 0 1.4025e-12 0 0 
4.34762e-11 4.9375e-11 0 0 6.07468e-11 0 0 0 0 
4.36732e-11 0 0 0 0 0 0 0 0 
0 0 0 0 2.42822e-11 0 0 0 5.19802e-12 
0 4.86356e-12 0 0 0 0 0 0 0 
0 0 0 0 5.05988e-11 0 0 1.07984e-11 0 
7.82153e-12 0 0 2.1803e-11 0 0 0 0 0 
0 0 0 0 0 0 0 0 0 
0 1.4542e-11 0 0 0 0 0 0 0 
0 2.74278e-11 0 2.55377e-12 0 0 0 0 0 
0 0 0 0 0 0 0 0 0 
0 0 0 0 0 0 0 4.14016e-12 0 
0 1.25979e-11 0 0 0 0 0 0 0 
0 0 0 0 5.79866e-12 0 0 0 0 
0 0 0 0 0 0 0 0 0 
0 0 0 0 0 0 0 0 0 
0 0 0 0 0 0 0 0 0 
0 0 1.31351e-12 0 0 0 0 0 0 
0 0 0 0 0 0 0 0 0 
0 0 0 0 0 0 0 0 0 
0 0 0 0 0 1.11184e-11 0 0 0 
0 1.0975e-12 0 0 9.99854e-12 0 0 0 0 
0 0 4.42878e-11 0 0 0 0 4.79308e-11 0 
0 0 0 0 0 1.59924e-11 0 0 0 
0 0 0 0 8.55907e-11 0 1.99369e-10 0 0 
0 0 4.72488e-11 3.73665e-11 1.48582e-11 0 0 2.83238e-11 0 
0 0 0 0 0 4.43653e-12 0 0 8.10222e-11 
0 0 0 0 0 0 8.06193e-11 0 0 
0 0 0 0 7.47568e-11 0 0 5.98617e-11 0 
0 0 0 0 0 2.89571e-11 0 0 0 
3.10395e-11 0 0 0 0 0 2.35271e-11 0 0 
0 0 0 0 0 0 0 0 6.02569e-11 
0 0 0 0 8.31407e-11 0 1.29659e-10 0 0 
0 3.39714e-11 0 0 0 0 2.86858e-11 0 0 
6.51917e-11 0 4.76569e-11 0 0 1.84254e-11 0 0 0 
0 0 0 0 1.49819e-11 0 0 3.95045e-11 0 
0 0 2.64536e-11 2.98645e-11 0 0 0 0 0 
0 0 0 0 0 0 0 0 0 
0 0 0 0 0 0 0 0 0 
0 0 0 0 0 0 0 0 0 
0 0 1.66751e-11 4.03229e-13 0 0 0 3.1791e-11 0 
0 0 0 0 0 0 0 0 0 
0 0 0 0 0 0 0 0 0 
0 0 0 0 0 0 0 0 0 
0 0 0 0 0 0 0 0 0 
0 0 0 0 0 0 0 0 0 
0 0 0 0 0 0 0 0 0 
0 0 0 0 0 0 0 3.76575e-11 0 
0 0 1.22789e-13 0 4.75753e-12 0 0 0 0 
0 2.31322e-12 0 0 0 4.85904e-11 0 0 0 
0 2.35369e-10 0 0 6.65845e-11 0 0 0 0 
4.05534e-12 0 0 1.11549e-11 0 0 0 0 0 
0 0 0 1.97336e-10 2.433e-08 0 0 0 4.69573e-11 
0 2.91538e-11 0 0 0 0 0 0 0 
0 0 0 1.05474e-12 2.46688e-10 0 7.32359e-13 0 3.54012e-11 
0 8.20546e-12 0 2.51995e-11 0 0 0 0 6.49425e-11 
0 1.22585e-12 0 0 0 3.02861e-13 0 0 0 
0 0 0 0 0 3.41085e-12 0 0 3.60895e-11 
0 0 2.47112e-11 0 1.73857e-11 0 0 0 0 
0 0 4.9317e-11 0 0 0 0 0 0 
0 0 6.28811e-11 7.18775e-11 0 0 4.35334e-13 0 0 
1.32545e-10 1.12555e-11 0 0 0 9.65955e-11 5.4834e-11 0 0 
0 0 0 0 0 0 0 0 0 
0 1.73841e-11 0 0 0 0 6.81295e-14 0 0 
1.65333e-11 0 0 0 3.07782e-12 2.24751e-11 0 0 0 
0 0 0 0 0 0 0 0 0 
0 0 0 0 0 0 0 6.92481e-12 0 
0 0 1.35996e-11 0 0 3.92826e-11 0 0 0 
0 0 0 7.71716e-11 0 3.22512e-11 0 0 0 
0 0 0 0 0 0 8.7923e-12 0 0 
0 0 0 0 0 0 0 0 0 
0 0 0 0 0 0 0 0 0 
0 0 0 0 0 0 0 0 0 
0 0 0 0 0 0 0 0 0 
0 0 0 0 0 0 0 0 0 
0 0 0 4.16323e-13 1.60992e-11 1.33547e-11 0 0 6.55598e-11 
0 0 0 4.52674e-11 4.88807e-12 3.33643e-11 0 0 0 
0 0 0 0 0 0 0 0 0 
0 4.45303e-11 0 0 0 2.87361e-11 7.53929e-11 0 1.15959e-11 
0 1.49664e-11 0 0 9.66297e-12 2.12162e-11 4.81154e-11 0 0 
0 0 0 1.80203e-10 0 0 4.63859e-11 0 2.98613e-11 
0 0 0 0 0 0 0 2.24892e-11 4.51073e-11 
3.58582e-11 1.23749e-10 2.54804e-08 0 0 0 0 0 0 
2.99187e-11 0 0 0 2.64901e-08 0 0 1.31232e-10 0 
0 5.28702e-13 5.70521e-11 0 2.44743e-11 1.02116e-10 1.38865e-10 0 0 
0 0 0 5.27342e-11 3.06093e-11 1.43113e-11 0 0 0 
0 0 0 2.02209e-11 0 0 0 0 0 
1.14436e-11 0 1.09782e-10 6.00549e-11 0 0 0 0 0 
0 0 0 2.52243e-08 0 0 0 2.12293e-11 0 
8.98656e-11 0 0 1.75205e-10 5.95211e-11 0 0 6.58222e-11 7.67784e-11 
0 0 2.7768e-11 0 0 4.2436e-11 0 0 0 
0 4.86257e-11 0 0 1.91761e-11 0 0 0 0 
0 0 0 0 0 0 0 2.79734e-11 0 
0 9.35059e-13 0 0 0 0 0 0 0 
0 0 0 0 0 0 5.21748e-12 0 0 
0 0 0 0 0 0 0 0 4.11506e-12 
0 0 0 0 0 0 0 0 0 
0 0 1.17009e-11 0 0 0 0 0 0 
0 0 0 0 0 0 0 0 0 
0 0 0 0 0 0 0 0 0 
0 0 0 0 0 0 0 0 0 
0 0 0 0 0 0 0 1.5067e-12 0 
0 0 0 0 0 0 0 0 0 
1.71894e-11 0 0 0 0 8.2987e-11 8.71203e-11 0 0 
0 2.23999e-11 0 0 0 0 0 0 0 
0 0 0 0 0 9.70412e-12 0 0 0 
0 0 0 0 0 0 3.83563e-11 0 0 
0 0 0 0 1.522e-11 1.09975e-13 7.18856e-11 8.45093e-11 0 
0 0 1.04157e-10 7.65797e-11 8.408e-12 0 0 0 0 
0 0 0 0 0 4.10644e-11 0 0 0 
1.31081e-10 0 0 0 1.42492e-10 0 0 0 0 
3.16738e-11 0 1.76607e-10 0 0 0 0 2.90941e-12 6.12523e-11 
2.93374e-11 0 7.28288e-11 2.34074e-11 0 0 2.46557e-08 0 0 
3.41339e-11 0 0 0 0 9.28235e-12 0 0 0 
0 0 4.414e-11 0 0 7.87279e-11 7.12288e-11 0 0 
9.66413e-11 7.93147e-11 2.93626e-11 0 7.86076e-11 0 0 0 1.31419e-10 
0 0 0 3.63243e-11 0 1.72884e-10 0 0 0 
1.07821e-10 0 0 0 5.21275e-11 5.62147e-11 0 8.64458e-12 0 
0 2.79403e-14 5.07982e-12 3.02395e-11 0 0 0 0 0 
0 0 0 0 0 2.59587e-11 0 8.40018e-11 0 
4.06172e-12 0 5.88822e-11 0 7.59641e-11 0 0 0 0 
0 0 0 0 0 0 0 0 0 
0 9.48058e-12 0 0 0 0 0 0 0 
0 0 1.6067e-11 8.98451e-11 1.56435e-11 0 0 0 0 
0 5.92991e-11 0 3.67632e-11 3.83172e-11 0 0 0 3.7986e-12 
0 2.44575e-11 0 0 0 0 0 0 0 
0 0 0 0 0 0 0 0 0 
0 0 0 0 0 0 0 0 0 
0 0 0 0 0 0 0 0 0 
0 0 0 0 0 0 0 0 0 
0 0 0 0 0 0 0 0 0 
0 1.97966e-12 0 5.48959e-11 0 0 0 0 0 
0 0 0 4.39868e-11 4.38354e-11 0 0 0 0 
0 2.63407e-08 0 2.41906e-10 0 0 5.95828e-12 7.97851e-13 0 
0 1.31026e-10 3.31857e-12 0 0 0 0 0 3.52867e-11 
3.17797e-11 0 0 0 0 2.57071e-11 7.11705e-11 0 0 
0 0 2.12528e-12 0 1.76398e-11 0 0 0 0 
0 0 0 0 0 0 5.27284e-11 0 0 
0 0 9.16463e-11 0 3.01185e-11 0 0 0 0 
0 0 0 0 0 0 4.92704e-11 8.0291e-12 0 
0 1.23371e-10 0 0 0 0 3.5767e-10 0 0 
0 0 0 0 0 0 0 2.06092e-11 0 
0 0 0 0 0 2.16211e-10 0 0 5.25072e-11 
0 0 0 3.34742e-11 4.92019e-11 2.11997e-11 0 0 0 
1.29288e-10 1.94126e-13 0 0 0 2.97353e-10 2.73385e-08 2.58492e-10 0 
0 0 1.22248e-10 0 0 8.8605e-11 0 0 7.75279e-13 
7.80365e-12 0 0 0 0 5.57907e-12 0 0 0 
0 5.44073e-11 1.20264e-10 0 0 0 0 4.06863e-11 6.83168e-11 
0 0 0 0 0 0 0 7.88757e-12 0 
0 0 0 0 6.33499e-12 0 0 0 0 
0 0 0 0 2.98112e-11 0 0 0 0 
0 0 7.06921e-11 0 3.16353e-12 2.37715e-10 0 0 0 
0 0 0 6.14161e-11 0 0 0 0 0 
0 0 8.17673e-13 0 0 2.69825e-12 0 0 0 
0 0 0 0 0 0 0 0 0 
0 0 0 0 0 0 0 0 0 
0 0 0 0 0 0 0 0 0 
0 0 0 0 0 0 0 0 0 
0 0 6.13955e-12 0 0 0 0 4.68823e-11 0 
0 6.60534e-11 0 0 2.4736e-08 0 3.07927e-11 0 0 
3.6821e-11 0 3.57578e-11 0 0 0 0 0 0 
3.58158e-10 0 0 0 0 1.58533e-11 1.38e-10 0 0 
1.50501e-10 0 0 0 8.14372e-11 7.98033e-12 0 0 0 
0 0 3.81774e-11 1.58324e-11 0 0 4.49607e-11 0 0 
0 0 0 2.17703e-11 0 2.03315e-11 0 2.55607e-11 0 
0 0 0 0 0 2.42897e-10 2.0765e-10 0 0 
0 2.93299e-11 5.98467e-11 9.75086e-11 0 0 1.59532e-10 0 0 
3.35968e-11 0 0 0 0 0 1.05737e-10 9.45293e-11 0 
1.37768e-10 0 1.64916e-10 0 0 1.02305e-10 0 5.70705e-11 0 
0 0 1.27316e-11 0 0 0 0 0 0 
4.50611e-11 0 0 2.44671e-08 1.57518e-10 0 1.01652e-10 0 0 
0 0 0 0 0 1.07183e-10 0 0 1.51773e-10 
4.31861e-13 5.93895e-12 0 0 0 1.87293e-10 0 0 1.98569e-10 
0 0 0 0 0 0 1.63471e-10 0 3.60594e-11 
0 0 0 0 0 0 0 0 1.1696e-10 
0 0 0 6.64265e-11 1.55943e-10 0 0 0 0 
0 0 0 2.92879e-13 0 0 0 1.92688e-12 0 
0 0 0 0 0 0 0 0 4.42871e-12 
0 0 0 0 0 0 1.22965e-10 0 8.62289e-11 
0 0 0 2.49562e-08 0 0 0 0 6.42881e-11 
0 0 3.92958e-11 0 1.97334e-11 0 1.106e-11 0 0 
0 1.17378e-11 0 0 0 0 0 0 0 
0 0 0 0 0 0 0 0 0 
0 0 0 0 0 0 0 0 0 
0 0 0 0 0 0 0 0 0 
0 0 0 0 0 0 0 0 0 
0 0 0 0 1.48653e-12 0 0 0 7.7975e-14 
0 1.7348e-10 8.33573e-11 1.26844e-10 2.93585e-11 0 0 0 0 
0 0 0 0 0 0 0 0 0 
2.17296e-10 0 0 1.16909e-11 0 1.15592e-10 1.50634e-10 4.82896e-11 0 
0 0 0 0 0 0 0 0 0 
3.2178e-11 0 0 0 0 3.52219e-11 0 7.20572e-11 0 
0 0 0 0 2.33683e-11 0 0 2.27474e-11 0 
6.44931e-11 0 0 0 1.56051e-10 1.87163e-12 4.46212e-11 1.42713e-12 0 
2.91197e-10 0 0 3.00594e-10 0 0 0 0 0 
0 0 0 3.90209e-11 0 6.49253e-11 0 0 2.28492e-10 
0 0 0 0 5.05055e-11 0 0 0 0 
0 0 0 0 0 0 0 0 1.69528e-11 
0 0 0 0 1.00912e-10 0 0 4.39368e-11 0 
7.1931e-11 0 0 3.86004e-11 0 0 0 0 9.6595e-11 
0 0 0 0 1.57278e-10 2.73541e-10 2.71297e-08 0 0 
0 1.15631e-11 0 0 0 7.21241e-11 0 0 0 
0 1.99511e-12 0 0 6.78543e-11 0 1.65431e-10 7.87522e-11 0 
0 0 0 0 0 5.24469e-11 0 0 0 
0 0 0 0 0 0 0 0 0 
1.62773e-13 7.52644e-13 0 0 0 0 7.94427e-12 0 0 
0 0 0 3.26504e-11 5.83429e-11 0 0 1.63039e-11 3.17889e-11 
0 0 0 0 0 8.1052e-12 0 6.80615e-11 4.35884e-11 
0 0 0 0 0 9.72433e-12 0 0 0 
0 1.2431e-11 0 0 0 0 0 0 0 
0 0 0 0 0 0 0 0 0 
0 0 0 0 0 1.07241e-12 0 0 0 
0 0 0 0 0 0 0 0 0 
0 0 0 0 0 0 0 0 0 
0 0 0 0 0 0 7.1842e-11 1.42858e-11 0 
1.14304e-10 2.07766e-11 3.01271e-11 0 0 0 8.95872e-12 0 1.8809e-10 
0 0 2.13858e-11 0 0 2.72084e-10 0 0 2.04911e-10 
0 0 1.97198e-12 0 2.68224e-08 0 0 3.40006e-11 0 
3.99762e-11 0 0 0 6.9925e-11 0 0 1.30933e-12 0 
0 0 0 0 0 0 0 0 0 
0 0 0 0 0 6.82382e-11 6.56275e-11 1.34046e-11 0 
0 0 0 0 0 0 0 0 0 
0 0 0 0 0 0 0 0 1.18154e-10 
0 1.17278e-11 1.78585e-10 1.1096e-10 3.02426e-12 0 2.14053e-11 0 0 
0 0 0 5.65433e-13 0 1.52908e-11 0 0 4.4004e-12 
0 0 0 8.98041e-11 0 0 0 0 3.06414e-11 
2.36374e-11 0 1.52759e-10 0 0 4.94078e-12 0 0 0 
0 8.74767e-11 0 0 0 0 0 1.34335e-10 0 
0 0 0 2.27854e-10 0 0 0 0 0 
0 0 0 0 0 4.87214e-11 0 0 0 
0 0 0 3.41135e-11 0 0 0 0 0 
0 0 0 4.90836e-11 4.97879e-11 9.58818e-11 7.64109e-11 0 0 
0 0 0 0 0 0 0 0 0 
0 0 0 3.41354e-11 0 0 0 0 0 
0 0 0 3.17948e-11 0 1.33987e-10 4.79482e-11 0 0 
0 1.89583e-10 0 0 0 0 0 0 0 
0 0 0 0 3.91436e-11 0 0 0 0 
0 0 0 0 0 0 0 0 0 
0 0 0 0 0 0 0 0 0 
3.82253e-13 0 0 0 0 0 0 0 0 
0 0 0 0 0 0 0 0 0 
0 0 0 0 0 0 0 0 0 
0 0 5.46396e-11 0 4.55053e-14 4.7467e-11 0 2.80093e-11 1.16098e-11 
0 0 0 0 0 0 0 0 0 
0 1.39054e-10 0 0 0 0 0 0 0 
0 6.46799e-11 2.54069e-10 0 0 9.28389e-11 0 0 0 
3.52609e-11 0 0 1.48226e-11 0 0 0 0 1.76025e-11 
0 0 0 0 0 0 2.37083e-11 0 7.26144e-11 
0 0 0 7.72881e-11 6.767e-11 0 0 0 2.42971e-12 
1.71836e-10 0 0 3.03415e-08 0 0 0 3.48524e-08 0 
0 0 0 1.60539e-10 0 1.06813e-10 0 6.91144e-11 1.78369e-10 
1.51189e-11 2.18904e-11 8.06473e-11 0 0 0 0 6.2175e-11 0 
5.09452e-11 0 0 0 0 0 1.36267e-11 0 0 
0 0 0 0 0 0 0 0 0 
2.19448e-11 0 0 1.82613e-12 7.90988e-11 0 0 0 6.10473e-11 
0 0 0 9.41513e-12 0 0 0 5.93343e-11 0 
8.30466e-11 0 0 0 0 0 0 8.84511e-11 3.9076e-11 
0 0 0 0 0 0 1.55264e-10 0 0 
0 0 0 0 0 0 0 0 0 
0 0 0 0 0 7.15105e-11 7.34214e-11 0 0 
0 0 0 0 1.30174e-11 0 0 0 0 
0 3.65322e-11 0 6.53776e-11 0 0 0 0 0 
0 0 9.35252e-11 0 0 0 0 0 0 
0 0 4.37527e-11 6.19398e-11 1.71081e-11 9.91949e-11 0 5.50621e-11 1.36848e-10 
0 0 0 0 0 0 0 0 0 
0 0 0 0 0 0 0 0 0 
0 0 0 0 0 0 0 0 0 
0 0 0 0 0 0 0 0 0 
0 0 0 0 0 0 0 0 0 
0 0 0 0 0 0 0 0 0 
0 4.63763e-11 0 9.86222e-11 0 5.93018e-11 0 0 0 
0 0 0 1.13082e-10 4.28028e-11 4.21835e-11 0 1.00341e-10 0 
0 0 0 0 0 0 0 0 0 
0 0 0 0 0 9.65442e-12 0 0 0 
0 0 0 0 0 0 1.0335e-10 0 0 
0 0 8.97723e-11 0 0 0 1.55984e-11 0 0 
0 0 0 0 0 8.26095e-11 0 1.72128e-10 0 
0 0 2.49875e-10 0 0 0 0 0 0 
0 0 0 0 2.63302e-08 0 0 0 0 
0 0 0 0 0 0 0 0 0 
0 0 0 0 0 0 0 0 1.6563e-11 
0 0 0 0 2.01598e-11 0 0 0 6.02229e-11 
0 0 0 0 1.35883e-10 0 0 0 0 
6.16361e-11 0 0 0 0 0 1.04238e-10 0 8.27403e-11 
5.99101e-11 8.91612e-11 0 0 0 0 1.19326e-10 0 0 
1.02648e-10 2.49718e-08 0 0 0 1.16146e-10 4.85674e-11 0 0 
0 1.94487e-10 0 0 0 0 2.83918e-08 0 0 
6.37832e-11 0 0 0 0 0 0 0 0 
0 0 0 0 0 0 0 0 0 
0 5.09395e-11 0 0 0 1.05446e-10 6.3851e-11 0 0 
1.77105e-11 0 0 0 0 0 0 1.35776e-12 0 
0 0 0 0 0 0 0 0 7.99724e-11 
4.66778e-11 0 0 0 0 0 0 0 0 
0 0 0 0 0 0 0 0 0 
0 0 0 0 0 0 0 0 0 
0 0 0 0 0 0 0 0 0 
0 0 0 0 0 0 0 0 0 
0 0 0 0 0 0 2.54169e-11 0 0 
0 5.82434e-11 0 0 0 0 0 9.62024e-11 0 
3.98572e-10 0 0 0 2.64499e-11 7.90652e-11 0 0 0 
0 3.8583e-08 3.87948e-08 0 0 0 3.12801e-11 0 0 
0 0 7.11311e-11 1.3996e-11 0 0 0 0 0 
0 0 9.45231e-11 0 0 4.32933e-11 0 0 0 
0 0 2.30898e-11 0 0 0 0 0 0 
0 2.55237e-11 0 0 0 0 0 0 0 
0 0 0 0 3.34036e-08 0 0 2.21904e-10 0 
2.6816e-10 0 2.68955e-10 0 0 1.09217e-11 0 0 5.48088e-12 
0 0 0 0 0 5.36946e-11 0 0 0 
0 0 0 0 0 0 0 0 0 
0 8.05762e-11 0 0 0 0 0 0 0 
0 1.24362e-11 0 0 0 0 0 0 0 
0 0 0 1.13203e-10 0 0 0 1.61245e-10 0 
0 7.10178e-12 0 0 0 0 0 0 0 
0 7.18474e-11 5.19754e-12 0 1.03195e-10 4.41163e-11 0 2.16935e-10 0 
0 0 0 0 9.76916e-11 0 0 0 2.97916e-11 
0 0 0 0 0 0 0 0 0 
0 0 0 0 1.90544e-11 2.26958e-11 0 0 2.52499e-11 
0 0 0 0 2.56009e-10 0 0 1.35198e-10 0 
4.6055e-11 1.24086e-10 0 0 0 1.10751e-10 2.3165e-10 0 0 
0 0 0 0 0 0 0 0 1.59197e-11 
0 0 1.85707e-12 0 1.19774e-11 8.67562e-12 0 0 0 
0 0 0 0 0 0 0 0 0 
0 0 0 0 0 0 0 0 0 
0 0 0 0 0 0 0 0 0 
0 0 0 0 0 0 0 0 0 
0 0 0 0 2.22115e-11 0 0 0 0 
0 0 5.95904e-11 0 0 0 0 0 0 
0 7.58378e-12 0 0 5.24307e-11 0 8.88828e-11 0 0 
0 0 2.25066e-10 0 0 8.7794e-11 1.08248e-10 0 0 
0 0 2.53165e-11 0 0 0 0 0 0 
4.74621e-12 0 0 8.38032e-11 0 1.07681e-10 0 0 0 
0 0 0 0 0 0 0 0 0 
0 0 0 0 0 0 7.34883e-12 0 1.81961e-11 
0 4.85184e-10 0 0 0 5.76393e-11 0 2.01606e-11 0 
5.45951e-11 0 0 0 0 0 8.27082e-11 0 0 
0 9.59547e-11 0 0 5.66671e-11 0 0 4.61188e-11 0 
0 0 0 0 0 2.91423e-11 0 0 0 
0 0 0 0 6.59935e-12 0 0 0 0 
0 0 0 0 0 0 0 0 0 
0 3.37351e-11 5.64204e-11 0 0 0 0 0 0 
4.08225e-11 0 0 8.97506e-11 0 0 0 0 0 
0 0 0 0 0 2.52425e-11 0 5.37645e-11 0 
5.51758e-11 0 0 2.17411e-10 0 9.30146e-14 0 4.34513e-11 0 
4.6459e-12 0 0 0 0 0 0 0 0 
0 0 0 0 0 0 0 0 0 
1.95373e-10 1.71268e-10 2.68668e-08 0 0 1.97054e-10 0 0 9.18016e-13 
0 0 4.81694e-11 6.57547e-13 0 2.19128e-11 0 0 0 
0 0 0 1.87162e-11 0 0 0 0 0 
0 0 0 0 0 0 0 0 0 
0 0 0 0 0 0 0 0 0 
0 0 0 0 0 0 0 0 0 
0 0 0 0 0 0 0 0 0 
0 0 0 0 0 0 0 0 0 
0 0 0 0 0 0 0 5.59141e-11 0 
0 3.44017e-11 0 0 0 2.6852e-08 0 3.85792e-10 1.06351e-10 
0 0 0 0 2.77088e-10 2.90259e-10 0 0 0 
6.18156e-11 2.01006e-10 0 0 1.15537e-10 0 0 0 0 
0 0 0 0 0 0 0 0 0 
0 0 0 3.36016e-11 1.06098e-10 1.0079e-10 0 2.98779e-10 1.45559e-12 
0 2.34388e-11 0 0 0 0 5.62396e-11 0 0 
0 1.65898e-12 1.08516e-12 1.08297e-10 2.04477e-11 0 4.52776e-11 2.45253e-12 0 
0 0 5.01432e-11 0 1.0306e-10 8.10346e-12 1.606e-11 0 0 
9.27905e-11 0 7.98739e-12 1.06558e-11 0 0 0 6.42637e-11 0 
0 0 0 0 0 0 0 0 0 
0 0 0 0 3.51695e-11 0 4.23706e-11 0 0 
0 0 0 0 0 0 0 0 0 
0 0 0 0 5.99131e-13 0 4.32726e-11 0 0 
0 0 1.25505e-10 0 0 0 0 6.26486e-12 0 
0 0 0 0 0 5.18887e-11 0 1.42577e-12 1.49916e-11 
1.37876e-10 0 0 0 0 0 0 0 1.81994e-10 
2.72334e-10 0 0 0 1.00055e-10 0 0 2.51234e-11 0 
2.03918e-11 0 0 0 0 0 0 0 0 
0 0 0 0 0 0 0 0 0 
1.07386e-10 8.22285e-11 7.5562e-11 0 0 0 0 0 0 
0 0 1.96267e-10 3.03215e-11 4.48539e-11 1.14455e-10 0 3.11719e-08 0 
0 0 0 0 0 0 0 0 0 
0 0 0 0 0 0 0 0 0 
0 0 0 0 0 0 0 0 0 
0 0 0 0 0 0 0 0 0 
0 0 0 0 0 0 0 0 0 
0 0 0 0 0 0 0 0 0 