# vtk DataFile Version 5.1
vtk output
ASCII
DATASET STRUCTURED_POINTS
DIMENSIONS 250 250 1
SPACING 1 1 1
ORIGIN 0 0 0
POINT_DATA 62500
FIELD FieldData 6
feature_1 1 62500 float
0 0 0 0 0 0 0 0 0 
0 0 0 0 0 0 0 0 0 
0 0 0 0 0 0 0 0 0 
0 0 0 0 0 0 0 0 0 
0 0 0 0 0 0 0 0 0 
0 0 0 0 0 0 0 0 0 
0 0 0 0 0 0 0 0 0 
0 0 0 0 0 0 0 0 0 
0 0 0 0 0 0 0 0 0 
0 0 0 0 0 0 0 0 0 
0 0 0 0 0 0 0 0 0 
0 0 0 0 0 0 0 0 0 
0 0 0 0 0 0 0 0 0 
0 0 0 0 0 0 0 0 0 
0 0 0 0 0 0 0 0 0 
0 0 0 0 0 0 0 0 0 
0 0 0 0 0 0 0 0 0 
0 0 0 0 0 0 0 0 0 
0 0 0 0 0 0 0 0 0 
0 0 0 0 0 0 0 0 0 
0 0 0 0 0 0 0 0 0 
0 0 0 0 0 0 0 0 0 
0 0 0 0 0 0 0 0 0 
0 0 0 0 0 0 0 0 0 
0 0 0 0 0 0 0 0 0 
0 0 0 0 0 0 0 0 0 
0 0 0 0 0 0 0 0 0 
0 0 0 0 0 0 0 0 0 
0 0 0 0 0 0 0 0 0 
0 0 0 0 0 0 0 0 0 
0 0 0 0 0 0 0 0 0 
0 0 0 0 0 0 0 0 0 
0 0 0 0 0 0 0 0 0 
0 0 0 0 0 0 0 0 0 
0 0 0 0 0 0 0 0 0 
0 0 0 0 0 0 0 0 0 
0 0 0 0 0 0 0 0 0 
0 0 0 0 0 0 0 0 0 
0 0 0 0 0 0 0 0 0 
0 0 0 0 0 0 0 0 0 
0 0 0 0 0 0 0 0 0 
0 0 0 0 0 0 0 0 0 
0 0 0 0 0 0 0 0 0 
0 0 0 0 0 0 0 0 0 
0 0 0 0 0 0 0 0 0 
0 0 0 0 0 0 0 0 0 
0 0 0 0 0 0 0 0 0 
0 0 0 0 0 0 0 0 0 
0 0 0 0 0 0 0 0 0 
0 0 0 0 0 0 0 0 0 
0 0 0 0 0 0 0 0 0 
0 0 0 0 0 0 0 0 0 
0 0 0 0 0 0 0 0 0 
0 0 0 0 0 0 0 0 0 
0 0 0 0 0 0 0 0 0 
0 0 0 0 0 0 0 0 0 
0 0 0 0 0 0 0 0 0 
0 0 0 0 0 0 0 0 0 
0 0 0 0 0 0 0 0 0 
0 0 0 0 0 0 0 0 0 
0 0 0 0 0 0 0 0 0 
0 0 0 0 0 0 0 0 0 
0 0 0 0 0 0 0 0 0 
0 0 0 0 0 0 0 0 0 
0 0 0 0 0 0 0 0 0 
0 0 0 0 0 0 0 0 0 
0 0 0 0 0 0 0 0 0 
0 0 0 1.7426e-13 0 0 0 0 0 
0 0 0 0 0 0 0 0 0 
0 0 0 0 0 0 0 0 0 
0 0 0 0 0 0 0 0 0 
0 4.05593e-13 0 0 0 0 0 0 0 
0 0 0 0 0 0 0 0 0 
0 0 0 0 0 0 0 0 0 
0 0 0 0 0 0 0 0 0 
0 0 0 0 0 0 0 0 0 
0 0 0 0 0 0 0 0 0 
0 0 0 0 0 0 0 0 0 
0 0 0 0 0 0 0 0 0 
0 0 0 0 0 0 0 0 0 
0 0 0 0 0 0 0 0 0 
0 0 0 0 0 0 0 0 0 
0 0 0 0 0 0 0 0 0 
0 0 0 0 0 0 0 0 0 
0 0 0 0 0 0 0 0 0 
0 0 0 0 0 0 0 0 0 
0 0 0 0 0 0 0 0 0 
0 0 0 0 0 0 0 0 0 
0 0 0 0 0 0 0 0 0 
0 0 0 0 0 0 0 0 0 
0 0 0 0 0 0 0 0 0 
0 0 0 0 0 0 0 0 0 
0 0 0 3.30912e-12 0 0 0 0 0 
0 0 0 0 0 0 0 0 0 
0 0 0 0 0 0 0 0 0 
0 0 0 0 0 0 0 0 0 
0 0 0 0 0 0 0 0 0 
0 0 0 0 0 0 0 0 0 
0 0 0 0 0 0 0 0 0 
0 0 0 0 0 0 0 0 0 
0 0 0 0 0 0 0 0 0 
0 0 0 0 0 0 0 0 0 
0 0 0 0 0 0 0 0 0 
0 0 0 0 0 0 0 0 0 
0 0 0 0 0 0 0 0 0 
0 0 0 0 0 0 0 0 0 
0 0 0 0 0 0 0 0 0 
0 0 0 0 0 0 0 0 0 
0 0 0 0 0 0 0 0 0 
0 0 0 0 0 0 0 0 0 
0 0 0 0 0 0 0 0 0 
0 0 0 0 0 0 0 0 0 
0 0 0 0 0 0 0 0 0 
0 0 0 0 0 0 0 0 0 
0 0 0 0 0 0 0 0 0 
0 0 0 0 0 0 0 0 0 
0 0 0 0 0 0 0 0 0 
0 0 0 0 0 0 0 0 0 
0 0 0 0 0 0 0 0 0 
0 0 0 0 0 0 0 0 0 
0 0 0 0 0 0 0 0 0 
0 0 0 0 0 0 0 0 0 
0 0 0 0 0 0 0 0 0 
0 0 0 0 0 0 0 0 0 
0 0 0 0 0 0 0 0 0 
0 0 0 0 0 0 0 0 0 
0 0 0 0 0 0 0 0 0 
0 0 0 0 0 0 0 0 0 
0 0 0 0 0 0 0 0 0 
0 0 0 0 0 0 0 0 0 
0 0 0 0 0 0 0 0 0 
0 0 0 0 0 0 0 0 0 
0 0 0 0 0 0 0 0 0 
0 0 0 0 0 0 0 0 0 
0 0 0 0 0 0 0 0 0 
0 0 0 0 0 0 0 0 0 
0 0 0 0 0 0 0 0 0 
0 0 0 0 0 0 0 0 0 
0 0 0 0 0 0 0 0 0 
0 0 0 0 0 0 0 0 0 
0 0 0 0 0 0 0 0 0 
0 0 7.33731e-13 0 0 0 0 7.25584e-13 0 
0 0 0 0 0 0 0 0 0 
0 0 0 0 0 0 0 7.54232e-14 0 
0 0 0 0 0 0 0 0 0 
0 0 0 0 0 0 0 0 0 
0 0 0 0 0 0 0 0 0 
0 0 0 0 0 0 0 0 0 
0 0 0 0 0 0 0 0 0 
0 0 0 0 0 0 0 0 0 
0 0 0 0 0 0 0 0 0 
0 0 0 0 0 0 0 0 0 
0 0 0 0 0 0 0 0 0 
0 0 0 0 0 0 0 0 0 
0 0 0 0 0 0 0 0 0 
0 0 0 0 0 0 0 0 0 
0 0 0 0 0 0 0 0 0 
0 0 0 0 0 0 0 0 0 
0 0 0 0 0 0 0 0 0 
0 0 0 0 0 0 0 0 0 
0 0 0 0 0 0 0 0 0 
0 0 0 0 0 0 0 0 0 
0 0 0 0 0 0 0 0 0 
0 0 0 0 0 0 0 0 0 
0 0 0 0 0 0 0 0 0 
0 0 0 0 0 0 0 0 0 
0 0 0 0 0 0 0 0 0 
0 0 0 0 0 0 0 0 0 
0 0 0 0 0 0 0 0 0 
0 0 0 0 0 0 0 0 0 
0 0 0 0 9.05612e-13 0 0 0 0 
0 0 0 0 0 0 0 0 0 
0 0 0 0 0 0 0 0 0 
0 0 0 0 0 0 0 0 0 
0 0 0 0 0 0 0 0 0 
0 0 0 0 0 0 0 0 0 
0 0 0 0 0 0 0 0 0 
0 0 0 0 0 0 0 0 0 
0 0 0 0 0 0 0 0 0 
0 0 0 0 0 0 0 0 0 
0 0 0 0 0 0 0 0 0 
0 0 0 0 0 0 0 0 0 
0 0 0 0 0 0 0 0 0 
0 0 0 0 0 0 0 0 0 
0 0 0 0 0 0 0 0 0 
0 0 0 0 0 0 0 0 0 
0 0 0 0 0 0 0 0 0 
0 0 0 0 0 0 0 0 0 
0 0 0 0 0 0 0 0 0 
0 0 0 0 0 0 0 0 0 
0 0 0 0 0 0 0 0 0 
0 0 0 0 0 0 0 0 0 
0 0 0 0 0 0 0 0 0 
0 0 0 0 0 0 0 0 0 
0 0 0 0 0 0 0 0 0 
0 0 0 0 0 0 0 0 0 
0 0 0 0 0 0 0 0 0 
0 0 0 0 0 0 0 0 0 
0 0 0 0 0 0 0 0 0 
0 0 0 0 0 0 0 0 0 
0 0 0 0 0 0 0 0 0 
0 0 0 0 0 0 0 0 0 
0 0 0 0 0 0 0 0 0 
0 0 0 0 0 0 0 0 0 
0 0 0 0 0 0 0 0 0 
0 0 0 0 0 0 0 0 0 
0 0 0 0 0 0 0 0 0 
0 0 0 0 0 0 0 0 0 
0 0 0 0 0 0 0 0 0 
0 0 0 0 0 0 0 0 0 
0 0 0 0 0 0 0 0 0 
0 0 0 0 0 0 0 0 0 
0 0 0 0 0 0 0 0 0 
0 0 0 0 0 0 0 0 0 
0 0 0 0 0 0 0 0 0 
0 0 0 0 0 0 0 0 0 
0 0 0 0 0 0 0 0 0 
0 0 0 0 0 0 0 0 0 
0 0 0 0 0 0 0 0 0 
0 0 0 0 0 0 0 0 0 
0 0 0 0 0 0 0 0 0 
0 0 0 0 0 0 0 0 0 
0 0 0 0 0 0 0 0 0 
0 0 0 0 0 0 0 0 0 
0 0 0 0 0 0 0 0 0 
0 0 0 0 0 0 0 0 0 
0 0 0 0 0 0 0 0 0 
0 0 0 0 0 0 0 0 0 
0 0 0 0 0 0 0 0 0 
0 0 0 0 0 0 0 0 0 
0 0 0 0 0 0 0 0 0 
0 0 0 0 0 0 0 0 0 
0 0 0 0 1.64216e-12 0 0 0 0 
0 0 0 0 0 0 0 0 0 
0 0 0 0 0 0 0 0 0 
0 0 0 0 0 0 0 0 0 
0 0 0 0 0 0 0 0 0 
0 0 0 0 0 0 0 0 0 
0 0 0 0 0 0 0 0 0 
0 0 0 0 0 0 0 0 0 
0 0 0 0 0 0 0 0 0 
0 0 0 0 2.35787e-13 0 0 0 0 
0 0 0 0 0 0 0 0 0 
0 0 0 0 0 0 0 0 0 
0 0 0 0 0 0 0 0 0 
0 0 0 0 0 0 0 0 0 
0 0 0 0 0 0 0 0 0 
0 0 0 1.12904e-12 0 0 0 0 0 
0 0 0 0 0 0 0 0 0 
0 0 0 0 0 0 0 0 0 
0 0 0 0 0 0 0 0 0 
0 0 0 0 0 0 0 0 0 
0 0 0 0 0 0 0 0 0 
0 0 0 0 0 0 0 0 0 
0 0 0 0 0 0 0 0 0 
0 0 0 0 0 0 0 0 0 
0 0 0 0 0 0 0 0 0 
0 0 0 0 0 0 0 0 0 
0 0 0 0 0 0 0 0 0 
0 0 0 0 0 0 0 0 0 
0 0 0 0 0 0 0 0 0 
0 0 0 0 0 0 0 0 0 
0 0 0 0 0 0 0 0 0 
0 0 0 0 0 0 0 0 0 
0 0 0 0 0 0 0 0 0 
0 0 0 0 0 0 0 0 0 
0 0 0 0 0 0 0 0 0 
0 0 0 0 0 0 0 0 0 
0 0 0 0 0 0 0 0 0 
0 0 0 0 0 0 0 0 0 
0 0 0 0 0 0 0 0 0 
0 0 0 0 0 0 0 0 0 
0 0 0 0 0 0 0 0 3.77154e-12 
0 0 0 0 0 0 0 0 0 
0 0 0 0 0 0 0 0 0 
1.2992e-12 0 0 0 0 0 0 0 0 
0 0 0 0 0 0 0 0 0 
0 0 0 0 0 0 0 0 0 
0 0 0 0 0 0 0 0 0 
0 0 0 0 0 0 0 0 0 
0 0 0 0 0 0 0 0 0 
0 0 0 0 0 0 0 0 0 
0 0 0 0 0 0 0 0 0 
0 0 0 0 0 0 0 0 0 
0 0 0 0 0 0 0 0 0 
0 0 0 0 0 0 0 0 0 
0 0 0 0 0 0 0 0 0 
0 0 1.09074e-13 0 0 0 0 0 0 
0 0 0 0 0 0 0 0 0 
0 0 0 0 0 0 0 0 0 
0 0 0 0 0 0 0 0 0 
0 0 0 0 0 0 0 0 0 
0 0 0 0 0 0 0 0 0 
0 0 0 0 0 0 0 0 0 
0 0 0 0 0 0 0 0 0 
0 0 0 0 0 0 0 0 0 
0 0 0 0 0 0 0 0 0 
0 0 0 0 0 0 0 0 0 
0 0 0 0 0 0 0 0 0 
0 0 0 0 0 0 0 0 0 
0 0 0 0 0 0 0 0 0 
0 0 0 0 0 0 0 0 0 
0 0 0 0 0 0 0 0 0 
0 0 0 0 0 0 0 0 0 
0 0 0 0 0 0 0 0 0 
0 0 0 0 0 0 0 0 0 
0 0 0 0 0 0 0 0 0 
0 0 0 0 0 0 0 0 0 
0 0 0 0 0 0 0 0 0 
0 0 0 0 0 0 0 0 0 
4.21139e-14 0 0 0 0 0 0 0 0 
0 0 0 0 0 0 0 0 0 
0 0 0 0 0 0 0 0 0 
0 0 0 0 0 0 0 0 0 
0 0 0 0 0 0 0 0 0 
0 0 0 0 0 0 0 0 0 
0 0 0 0 0 0 0 0 0 
0 0 0 0 0 0 0 0 0 
0 0 0 0 0 0 0 0 0 
0 0 0 0 0 0 0 0 0 
0 0 0 0 0 0 0 0 0 
0 0 0 0 0 0 0 0 0 
0 0 0 0 0 0 0 0 0 
0 0 0 0 0 0 0 0 0 
0 0 0 0 0 0 0 0 0 
0 0 0 0 0 0 0 0 0 
0 0 0 0 0 0 0 0 0 
0 0 0 0 0 0 0 0 0 
1.66294e-12 0 0 0 0 0 0 0 0 
0 0 0 0 0 0 0 0 0 
0 0 0 0 0 0 0 0 0 
0 0 0 0 0 0 0 0 0 
0 0 0 0 0 0 0 0 0 
0 0 0 0 0 0 0 0 0 
0 0 0 0 0 0 0 0 0 
0 0 0 0 0 0 0 0 0 
0 0 0 0 0 0 0 0 0 
0 0 0 0 0 0 0 0 0 
0 0 0 0 0 0 0 0 0 
0 0 0 0 0 0 0 0 0 
0 0 0 0 0 0 0 7.90197e-13 0 
0 0 0 0 0 0 0 0 0 
0 0 0 0 0 0 0 0 0 
0 0 0 0 0 0 0 0 0 
0 0 0 0 0 0 0 0 0 
0 0 0 0 0 0 0 0 0 
0 0 0 0 0 0 0 0 0 
0 0 0 0 0 0 0 0 0 
0 0 0 0 0 0 0 0 0 
0 0 0 0 0 0 0 0 0 
0 0 0 0 0 0 0 0 0 
0 0 0 0 0 0 0 0 0 
0 0 0 0 0 0 0 0 0 
0 0 0 0 0 0 0 0 0 
0 0 0 0 0 0 0 0 0 
0 0 0 0 0 0 0 0 0 
0 0 0 0 0 0 0 0 0 
0 0 0 0 0 0 0 0 0 
0 0 0 0 0 0 0 0 0 
0 0 0 0 0 0 0 0 0 
0 0 0 0 0 0 0 0 0 
0 0 0 0 0 0 0 0 0 
0 0 0 0 0 0 0 0 0 
0 0 0 0 0 0 0 0 0 
0 0 0 0 0 0 0 0 0 
0 0 0 0 0 0 0 0 0 
0 0 0 0 0 0 0 0 0 
0 0 0 0 0 0 0 0 0 
0 0 0 0 0 0 0 0 0 
0 0 0 0 0 0 0 0 0 
0 0 0 0 0 0 0 0 0 
0 0 0 0 0 0 0 0 0 
0 0 0 0 0 0 0 0 0 
0 0 0 0 0 0 0 0 0 
0 0 0 0 0 0 0 0 0 
0 0 0 0 0 0 0 0 0 
0 0 0 0 0 0 0 0 0 
0 0 0 0 0 0 0 0 0 
0 0 0 0 0 0 0 0 0 
3.03929e-13 0 0 0 0 0 0 0 0 
0 0 0 0 0 0 0 0 0 
0 0 0 0 0 0 0 0 0 
0 0 0 0 0 0 0 0 0 
0 0 0 0 0 0 0 0 0 
0 0 0 0 0 0 0 0 0 
0 0 0 0 0 0 0 0 0 
0 0 0 0 0 0 0 0 0 
0 0 0 0 0 0 0 0 0 
0 0 0 0 0 0 0 0 0 
0 1.09564e-12 0 0 0 0 0 0 0 
0 0 0 0 0 0 0 0 0 
0 0 0 0 0 0 0 0 0 
0 0 1.52559e-13 0 0 0 0 0 0 
0 0 0 0 0 0 0 0 0 
0 0 0 0 0 0 0 0 0 
0 0 0 0 0 0 0 0 0 
0 0 0 0 0 0 0 0 0 
0 0 0 0 0 0 0 0 0 
0 0 0 0 0 0 0 0 0 
0 0 0 0 0 0 0 0 0 
0 0 0 0 0 0 0 0 0 
0 0 0 0 0 0 0 0 0 
0 0 0 0 0 0 0 0 0 
0 0 0 0 0 0 0 0 0 
0 0 0 0 0 0 0 0 0 
0 0 0 0 0 0 0 0 0 
0 0 0 0 0 0 0 0 0 
0 0 0 0 0 0 0 0 0 
0 0 0 0 0 0 0 0 0 
0 0 0 0 0 0 0 0 0 
0 0 0 0 0 0 0 0 0 
0 0 0 0 0 0 0 0 0 
0 0 0 0 0 0 0 0 0 
0 0 0 0 0 0 0 0 0 
0 0 0 0 0 0 0 0 0 
0 0 0 0 0 0 0 0 0 
0 0 0 0 0 0 0 0 0 
0 0 0 0 0 0 0 0 0 
0 0 0 0 0 0 0 0 0 
0 0 0 0 0 0 0 0 0 
0 0 0 0 0 0 0 0 0 
0 0 0 0 0 0 0 0 0 
0 0 0 0 0 0 0 0 0 
0 0 0 0 0 0 0 0 0 
0 0 0 0 0 0 0 0 0 
0 0 0 0 0 0 0 0 0 
0 0 0 0 0 0 0 0 0 
0 0 0 0 0 0 0 0 0 
0 0 0 0 0 0 0 0 0 
0 0 0 0 0 0 0 0 0 
0 0 0 0 0 0 0 0 0 
0 0 0 0 0 0 0 0 0 
0 0 0 0 0 0 0 0 0 
0 0 0 0 0 0 0 0 0 
0 0 0 0 0 0 0 0 0 
0 0 0 0 0 0 0 0 0 
0 0 0 0 0 0 0 0 0 
0 0 0 0 0 0 0 0 0 
0 0 0 0 0 0 0 0 0 
0 0 0 0 0 0 0 0 0 
0 0 0 0 0 0 1.91138e-12 0 0 
0 0 1.00146e-12 0 0 0 0 0 0 
0 0 0 0 0 0 0 0 0 
0 0 0 0 0 0 0 0 0 
0 0 0 0 0 0 0 0 0 
0 0 0 0 0 0 0 0 0 
0 0 0 0 0 0 0 0 0 
0 0 0 2.41715e-12 0 0 0 0 0 
0 0 0 0 0 0 0 0 0 
0 0 0 0 0 0 0 0 0 
0 0 0 5.35569e-13 0 0 0 0 0 
0 0 0 0 0 0 0 0 0 
0 0 0 0 0 0 0 0 0 
0 0 0 0 0 0 0 0 0 
0 0 0 0 0 0 0 0 0 
0 0 0 0 0 0 0 0 0 
0 0 0 0 0 0 0 0 0 
0 0 0 0 0 0 0 0 0 
0 7.17792e-13 0 0 0 0 0 0 0 
0 0 0 0 0 0 0 0 0 
0 0 0 0 5.83344e-12 0 0 0 0 
0 0 0 0 0 0 0 0 0 
0 0 0 0 0 0 0 0 0 
0 0 0 0 0 0 0 0 0 
0 0 0 0 0 0 0 0 0 
0 0 0 0 0 0 0 0 0 
0 0 0 0 0 0 0 0 0 
0 0 0 0 0 0 0 0 0 
0 0 0 0 0 0 0 0 0 
0 0 0 0 0 0 0 0 0 
0 0 0 0 0 0 0 0 0 
0 0 0 0 0 0 0 0 0 
0 0 0 0 0 0 0 0 0 
0 0 0 0 0 0 0 0 0 
0 0 0 0 0 0 0 0 0 
0 0 0 0 0 0 0 0 0 
0 0 0 0 0 0 0 0 0 
0 0 0 0 0 0 0 0 0 
0 0 0 0 0 0 0 0 0 
0 0 0 0 0 0 0 0 0 
0 8.44141e-13 0 0 0 0 0 0 0 
0 0 0 0 0 0 0 0 0 
0 0 0 0 0 0 0 0 0 
0 0 0 0 0 0 0 0 0 
0 0 0 0 0 0 0 0 0 
0 0 0 0 0 0 0 0 0 
0 0 0 0 0 0 0 0 0 
0 0 0 0 0 0 0 0 0 
0 0 0 0 0 0 0 0 0 
0 0 0 1.58748e-12 0 0 0 0 0 
0 0 0 0 0 0 0 0 0 
0 0 0 0 0 0 0 0 0 
0 0 0 0 0 0 0 0 0 
0 0 0 0 0 0 0 0 4.77099e-13 
0 0 0 0 0 0 0 0 0 
0 0 0 0 0 0 0 0 0 
0 0 0 0 0 0 0 0 0 
0 0 0 0 0 0 0 0 0 
0 0 0 0 0 0 0 0 0 
0 0 0 0 0 0 0 0 0 
0 0 0 0 0 0 0 0 0 
0 0 0 0 0 0 0 0 0 
0 0 0 0 0 0 0 0 0 
0 0 0 0 0 0 0 0 0 
0 0 0 0 0 0 0 0 0 
0 0 0 0 0 0 0 0 0 
0 0 0 0 4.69956e-13 0 0 0 2.92402e-12 
0 0 0 0 0 0 0 0 8.54747e-12 
0 0 0 0 0 0 0 0 0 
0 0 0 0 0 0 0 0 0 
0 0 0 4.3582e-12 0 0 0 0 0 
0 0 0 0 0 0 0 0 0 
0 0 0 1.00421e-11 0 0 0 0 0 
0 0 0 0 0 0 0 0 0 
0 0 0 0 0 0 0 0 0 
0 0 9.34313e-14 0 0 0 0 0 0 
0 0 0 0 0 0 0 0 0 
0 0 0 0 0 0 0 0 0 
0 0 0 0 0 0 0 0 0 
0 0 0 0 0 0 0 0 0 
0 0 0 0 0 0 0 0 0 
0 0 0 0 0 0 0 0 0 
0 0 0 0 0 0 0 0 0 
0 0 0 0 0 0 0 0 0 
0 0 0 0 0 0 0 0 0 
0 0 0 0 0 0 0 0 0 
0 0 0 0 0 0 0 0 0 
0 0 0 0 0 0 0 0 0 
0 0 0 0 0 0 0 0 0 
0 0 0 0 0 0 0 0 0 
0 0 0 0 0 0 0 0 0 
0 0 0 0 0 0 0 0 0 
0 0 0 0 0 0 0 0 0 
0 0 0 0 0 0 0 0 0 
0 0 0 0 0 5.28246e-12 0 0 0 
0 0 0 0 0 0 0 0 0 
0 1.39557e-13 0 0 0 0 0 0 0 
0 0 0 0 0 0 0 0 1.05043e-12 
0 0 0 1.60017e-12 1.21797e-12 0 0 0 0 
0 0 0 0 0 0 0 0 0 
0 0 0 0 0 0 0 0 0 
0 0 0 0 0 0 0 0 0 
0 0 0 0 0 0 0 0 0 
0 0 0 0 0 0 0 0 0 
0 0 0 0 0 1.22887e-12 0 0 0 
0 0 0 0 0 0 0 0 0 
0 0 0 0 0 0 0 0 0 
0 0 0 0 0 0 0 0 0 
0 0 0 0 0 0 0 0 0 
0 0 0 0 0 0 0 0 0 
0 0 0 0 0 0 0 0 0 
0 0 0 0 0 0 0 0 0 
0 0 0 0 0 0 0 0 0 
0 0 0 0 0 0 0 0 0 
0 0 0 0 0 0 0 0 0 
0 0 0 0 0 0 0 0 0 
0 0 0 0 0 0 0 0 1.56599e-13 
0 0 0 0 0 0 0 0 0 
0 0 0 0 0 0 0 0 0 
0 0 0 0 0 0 0 0 0 
0 0 0 0 0 0 0 0 0 
0 0 0 0 0 0 0 0 0 
0 0 0 0 0 0 0 0 0 
1.72962e-11 0 0 0 2.58561e-11 8.25272e-12 0 0 0 
0 0 0 0 0 0 0 0 0 
0 1.92463e-11 0 0 0 0 0 0 1.88959e-11 
0 0 0 0 0 0 0 0 0 
0 0 0 0 0 0 0 0 0 
0 0 0 0 0 0 0 0 0 
0 0 0 0 0 0 0 0 0 
0 0 0 0 0 0 0 0 2.45031e-12 
0 0 0 0 0 0 0 0 0 
0 0 0 0 0 0 0 0 0 
0 0 0 0 0 0 0 0 0 
0 0 0 0 0 0 0 0 0 
0 0 0 0 0 0 0 0 0 
0 0 0 0 0 0 0 0 0 
0 0 0 0 0 0 0 0 0 
0 3.56487e-12 0 0 0 0 0 0 0 
0 0 0 0 0 0 0 0 0 
0 0 0 0 0 0 0 0 0 
0 0 0 0 0 0 0 0 0 
0 0 0 0 0 0 0 0 0 
0 0 0 0 0 0 0 0 0 
0 0 0 0 0 0 0 0 0 
0 0 0 0 0 7.07386e-13 0 0 0 
0 0 0 0 0 0 0 0 0 
0 0 0 0 0 0 0 0 0 
0 0 0 0 0 0 0 0 0 
0 0 8.78062e-12 0 0 0 0 0 0 
0 0 0 0 0 1.55817e-11 9.31811e-12 0 0 
0 0 0 0 0 3.03968e-12 0 0 0 
0 0 6.63939e-13 0 0 0 0 0 0 
0 0 0 0 0 0 0 0 0 
5.60311e-12 0 0 0 0 2.5192e-11 0 0 0 
0 0 0 0 0 1.0843e-11 0 0 0 
0 0 0 0 0 0 0 0 0 
0 0 0 0 0 0 0 0 0 
0 0 0 0 0 0 0 0 0 
0 0 0 0 0 1.35198e-11 0 1.74492e-11 0 
0 0 0 0 0 0 0 1.24504e-12 0 
0 0 0 0 0 0 0 0 0 
0 0 0 0 0 0 0 0 0 
0 0 0 0 0 0 0 0 0 
0 0 0 0 0 0 0 0 0 
0 0 0 0 0 0 0 0 0 
0 0 0 0 0 0 0 5.18102e-12 0 
0 0 0 0 0 0 0 0 0 
0 0 0 0 0 0 0 0 0 
0 0 0 0 0 0 0 0 0 
0 0 0 0 0 0 0 0 0 
0 0 0 0 0 0 0 0 0 
0 0 1.13372e-12 0 0 0 0 0 0 
0 0 0 0 0 0 0 0 0 
0 0 0 0 0 0 0 0 0 
0 0 0 0 0 0 0 0 0 
0 0 0 0 0 0 0 0 8.02596e-14 
0 0 0 0 0 0 0 0 0 
0 0 0 0 0 1.27673e-11 0 2.89768e-11 0 
0 0 0 0 0 0 0 0 0 
0 0 0 0 2.33026e-11 0 3.04067e-11 0 0 
6.4297e-12 0 0 0 0 0 0 0 0 
3.00489e-11 0 0 8.02318e-14 0 0 2.10984e-13 0 0 
0 1.63144e-11 2.07826e-11 0 0 0 0 0 0 
0 0 0 0 0 0 0 0 0 
0 0 0 0 3.0875e-12 0 0 0 0 
0 0 0 0 0 0 4.73928e-12 0 0 
0 0 0 0 0 0 0 0 0 
0 0 0 0 0 0 0 0 0 
0 0 0 0 0 0 0 0 0 
0 0 0 0 0 0 0 0 0 
0 0 0 0 0 0 0 0 0 
0 0 0 0 0 0 0 0 0 
0 0 0 0 0 0 0 0 0 
0 0 6.60432e-12 0 0 0 0 0 0 
0 0 0 0 0 0 0 0 0 
0 0 0 0 0 0 0 0 0 
0 0 0 0 0 0 0 0 0 
0 0 0 0 0 1.20872e-12 0 0 0 
0 0 0 0 0 0 0 0 0 
0 0 0 0 0 0 0 0 0 
0 0 0 0 5.58681e-12 0 0 0 0 
0 0 0 0 0 0 0 0 0 
0 0 0 0 0 0 0 0 0 
0 0 9.60254e-12 2.02547e-11 0 0 0 6.45142e-12 0 
0 0 0 0 0 0 0 0 0 
0 2.79587e-11 0 3.17208e-12 0 0 0 0 0 
0 0 6.47476e-12 0 0 0 0 0 0 
0 0 0 0 0 0 0 0 0 
0 0 0 0 0 0 0 7.93497e-12 0 
0 0 0 0 0 0 0 0 0 
0 3.62739e-11 0 0 0 0 0 0 0 
1.20318e-11 0 0 0 0 0 0 0 0 
0 0 0 0 0 0 0 0 0 
9.55564e-12 0 0 0 0 0 0 8.35954e-12 0 
0 0 0 0 0 0 1.05844e-11 0 0 
0 0 0 0 0 0 0 0 0 
0 0 0 0 0 0 0 0 0 
0 0 0 0 0 0 0 0 0 
0 0 0 0 0 0 0 0 0 
0 0 0 0 0 0 0 0 0 
0 0 0 0 0 0 0 0 5.79723e-12 
0 0 0 1.5955e-11 0 0 0 0 0 
0 0 0 0 0 0 0 0 0 
0 0 0 0 0 0 0 0 0 
0 0 0 0 0 0 0 0 0 
0 0 0 0 0 0 0 0 0 
0 0 0 0 0 0 0 0 0 
0 0 0 0 0 0 0 0 0 
0 0 0 0 0 0 0 0 0 
0 0 0 0 0 0 0 0 0 
0 0 0 0 0 0 0 0 0 
0 0 0 0 0 0 0 0 0 
0 0 1.41236e-11 1.27232e-11 0 1.48582e-11 0 0 0 
4.25091e-11 0 3.72438e-11 0 0 0 0 0 0 
2.21251e-11 0 0 0 0 0 0 0 0 
0 3.09244e-11 0 0 0 0 0 5.21507e-11 0 
0 0 0 0 0 0 0 0 0 
0 0 0 0 0 0 0 0 0 
4.03465e-11 0 0 9.088e-12 0 1.08269e-11 0 0 0 
0 0 0 0 0 0 6.23045e-12 0 0 
0 0 0 0 0 0 0 0 0 
3.07412e-11 0 0 0 0 0 0 0 0 
0 0 0 0 0 0 0 0 0 
0 0 0 1.00674e-11 0 0 1.31752e-11 0 0 
0 0 0 0 0 0 0 0 0 
0 0 0 0 0 0 0 0 0 
0 0 0 0 0 0 0 0 0 
0 0 0 0 0 0 0 0 0 
0 0 0 1.17669e-12 0 0 0 0 0 
0 0 0 0 0 0 0 0 0 
8.28882e-12 0 0 0 0 0 0 0 0 
0 0 0 0 0 0 0 0 0 
0 0 0 0 0 0 0 0 0 
0 0 0 0 0 0 0 0 0 
0 0 0 0 0 0 0 0 0 
5.41739e-13 0 0 0 0 0 0 0 0 
0 0 0 0 0 0 0 0 0 
0 0 0 0 0 0 4.60473e-12 0 0 
3.16721e-11 0 4.47661e-11 0 0 0 0 0 0 
0 0 0 0 0 0 0 0 0 
0 0 0 0 2.20997e-11 0 2.70451e-11 0 0 
2.25039e-11 2.49601e-11 0 0 0 3.91181e-11 0 7.55854e-14 0 
0 0 0 0 0 0 0 0 0 
0 0 0 2.20604e-11 7.19989e-11 0 0 2.79692e-11 0 
5.03631e-11 0 0 0 0 0 0 0 0 
0 3.58455e-11 0 5.05927e-11 0 0 0 0 0 
0 0 0 0 1.33779e-11 0 0 0 1.46668e-11 
0 0 0 0 0 0 0 0 0 
0 0 0 0 0 0 0 0 0 
0 0 0 5.2905e-11 2.23644e-11 0 0 0 0 
0 0 0 0 9.34131e-12 0 0 0 0 
0 1.06925e-11 0 0 0 0 0 0 0 
0 0 1.64118e-11 0 0 0 0 0 0 
1.37639e-12 0 0 0 0 0 0 0 0 
0 0 0 0 0 0 0 0 0 
0 0 0 0 0 0 0 0 0 
0 0 0 0 0 0 0 0 3.04945e-11 
0 0 0 0 0 0 0 0 0 
0 0 0 0 0 0 0 0 0 
0 0 0 0 0 0 0 4.04488e-13 0 
0 0 0 0 0 0 0 0 0 
0 0 0 0 0 0 0 0 0 
0 0 0 0 0 0 0 0 0 
0 0 0 0 0 0 0 0 0 
0 0 0 0 0 0 0 0 0 
0 0 0 0 0 0 0 0 0 
3.35191e-11 0 0 0 5.10944e-11 0 0 0 0 
0 0 0 0 0 0 0 0 0 
0 0 1.06731e-11 2.01124e-11 0 0 0 0 0 
0 0 0 0 2.17786e-11 0 0 0 0 
0 0 0 0 0 7.66128e-11 0 0 8.90154e-12 
2.08237e-11 0 6.14422e-11 1.06291e-10 0 0 0 0 0 
0 0 0 0 0 0 0 0 0 
4.1092e-11 5.11059e-11 0 0 6.33658e-11 0 0 0 0 
4.04472e-11 0 0 0 0 0 0 0 0 
0 0 0 0 2.17444e-11 0 0 0 3.36734e-12 
0 9.78009e-12 0 0 0 0 0 0 0 
0 0 0 0 4.84456e-11 0 0 1.07301e-11 0 
8.98139e-12 0 0 2.1294e-11 0 0 0 0 0 
0 0 0 0 0 0 0 0 0 
0 1.26149e-11 2.23764e-12 0 0 0 0 0 0 
0 2.85026e-11 0 1.72973e-12 0 0 0 0 0 
0 0 0 0 0 0 0 0 0 
0 0 0 0 0 0 0 5.07333e-12 0 
0 1.20653e-11 0 0 0 0 0 0 0 
0 0 0 0 1.09327e-12 0 0 0 0 
0 0 0 0 0 0 0 0 0 
0 0 0 0 0 0 0 0 0 
0 0 0 0 0 0 0 0 0 
0 0 0 0 0 0 0 0 0 
0 0 0 0 0 0 0 0 0 
0 0 0 0 0 0 0 0 0 
0 0 0 0 0 1.09583e-11 0 0 0 
0 3.52824e-12 0 0 1.37821e-11 0 0 0 0 
0 0 4.55845e-11 0 0 0 0 4.91574e-11 0 
0 0 0 0 0 1.68041e-11 0 0 0 
0 0 0 0 8.70791e-11 0 2.03537e-10 0 0 
0 0 5.12932e-11 3.62583e-11 1.63265e-11 0 0 3.20352e-11 0 
0 0 0 0 0 5.82349e-12 0 0 7.67017e-11 
0 0 0 0 0 0 7.69524e-11 0 0 
0 0 0 0 7.52258e-11 0 0 5.89985e-11 0 
0 0 0 0 0 2.53786e-11 0 0 0 
3.18634e-11 0 0 0 0 0 1.89156e-11 0 0 
0 0 0 0 0 0 0 0 5.71532e-11 
0 0 0 0 8.10057e-11 0 1.2868e-10 0 0 
0 3.31579e-11 0 0 0 0 2.7857e-11 0 0 
6.52969e-11 0 4.66496e-11 0 0 2.07534e-11 0 0 0 
0 0 0 0 1.83318e-11 0 0 3.90982e-11 0 
0 0 2.52168e-11 2.91581e-11 0 0 0 0 0 
0 0 0 0 0 0 0 0 0 
0 0 0 0 0 0 0 0 0 
0 0 0 0 0 0 0 0 0 
0 0 1.93796e-11 9.51968e-13 0 0 0 3.28981e-11 0 
0 0 0 0 0 0 0 0 0 
0 0 0 0 0 0 0 0 0 
0 0 0 0 0 0 0 0 0 
0 0 0 0 0 0 0 0 0 
0 0 0 0 0 0 0 0 0 
0 0 0 0 0 0 0 0 0 
0 0 0 0 0 0 0 3.92641e-11 0 
0 0 0 0 6.67569e-12 1.8122e-12 0 0 0 
0 8.37476e-13 0 0 0 4.82693e-11 0 0 0 
0 2.39375e-10 0 0 6.64708e-11 0 0 0 0 
4.07827e-12 0 0 1.08254e-11 0 0 0 0 0 
0 0 0 1.97082e-10 2.43284e-08 0 0 0 4.51641e-11 
0 3.19195e-11 0 0 0 0 0 0 0 
0 0 0 0 2.49873e-10 9.9923e-13 2.71271e-12 0 3.6295e-11 
0 1.13189e-11 0 2.57234e-11 0 0 0 0 6.36665e-11 
0 0 0 0 0 0 0 0 0 
0 0 0 0 0 0 0 0 3.97746e-11 
0 0 2.29359e-11 0 1.37663e-11 0 0 0 0 
0 0 5.05031e-11 0 0 0 0 0 0 
0 0 6.06198e-11 6.71008e-11 0 0 0 0 0 
1.30613e-10 1.55056e-11 0 0 0 9.16413e-11 5.2639e-11 0 0 
0 0 0 0 0 0 0 0 0 
0 1.70436e-11 0 0 0 0 0 0 0 
1.76642e-11 0 0 0 9.47565e-13 2.46825e-11 0 0 0 
0 0 0 0 0 0 0 0 0 
0 0 0 0 0 0 0 1.1645e-11 0 
0 0 1.6467e-11 0 0 3.4631e-11 0 0 0 
0 0 0 7.20297e-11 0 3.40535e-11 0 0 0 
0 0 0 0 0 0 6.29637e-12 0 0 
0 0 0 0 0 0 0 0 0 
0 0 0 0 0 0 0 0 0 
0 0 0 0 0 0 0 0 0 
0 0 0 0 0 0 0 0 0 
0 0 0 0 0 0 0 0 0 
0 0 0 8.56249e-13 1.5141e-11 1.15375e-11 0 0 6.46399e-11 
0 0 0 4.61809e-11 2.55579e-12 3.01625e-11 0 0 0 
0 0 0 0 0 0 0 0 0 
0 4.06705e-11 0 0 0 2.39842e-11 7.06191e-11 0 1.07794e-11 
0 1.234e-11 0 0 1.02686e-11 2.22284e-11 4.90185e-11 0 0 
0 0 0 1.83844e-10 0 0 4.66444e-11 0 2.6759e-11 
0 0 0 0 0 0 0 2.40055e-11 5.15616e-11 
3.21054e-11 1.29757e-10 2.54822e-08 0 0 0 0 0 0 
2.57299e-11 0 0 0 2.64928e-08 0 0 1.32422e-10 0 
0 5.35172e-12 5.65493e-11 0 2.44802e-11 1.03205e-10 1.37308e-10 0 0 
0 0 0 5.18291e-11 2.98626e-11 1.4299e-11 0 0 0 
0 0 0 1.92359e-11 0 0 0 0 0 
1.08161e-11 0 1.10159e-10 5.67732e-11 0 0 0 0 0 
0 0 0 2.52243e-08 0 0 0 2.64808e-11 0 
8.5241e-11 0 0 1.79231e-10 5.81992e-11 0 0 6.48743e-11 7.8009e-11 
0 0 2.99096e-11 0 0 4.14262e-11 0 0 0 
0 4.49682e-11 0 0 1.77247e-11 0 0 0 0 
0 0 0 0 0 0 0 2.45857e-11 0 
0 0 0 0 0 0 0 0 0 
0 0 0 0 0 0 2.67733e-12 0 0 
0 0 0 0 0 0 0 0 6.85753e-12 
0 0 0 0 0 0 0 0 0 
0 0 1.16213e-11 0 0 0 0 0 0 
0 0 0 0 0 0 0 0 0 
0 0 0 0 0 0 0 0 0 
0 0 0 0 0 0 0 0 0 
0 0 0 0 0 0 0 0 0 
0 0 0 0 0 0 0 0 0 
1.60207e-11 0 0 0 0 7.92767e-11 8.23785e-11 0 0 
0 1.90737e-11 0 0 0 0 0 0 0 
0 0 0 0 0 1.09821e-11 0 0 0 
0 0 0 0 0 0 3.76551e-11 0 0 
0 0 0 0 1.3453e-11 0 7.29905e-11 8.26267e-11 0 
0 0 1.03585e-10 7.73428e-11 5.49548e-12 0 0 0 0 
0 0 0 0 0 4.49702e-11 0 0 0 
1.3204e-10 0 0 0 1.4047e-10 0 0 0 0 
3.08462e-11 0 1.76506e-10 0 0 0 0 0 5.85276e-11 
2.79881e-11 0 7.31735e-11 2.19125e-11 0 0 2.46625e-08 0 0 
3.28452e-11 0 0 0 0 1.15988e-11 0 0 0 
0 0 4.48487e-11 0 0 8.28241e-11 7.52961e-11 0 0 
1.02869e-10 7.75098e-11 2.95696e-11 0 7.61269e-11 0 0 0 1.32349e-10 
0 0 0 3.14404e-11 0 1.71798e-10 0 0 0 
1.07964e-10 0 0 0 5.33391e-11 5.97665e-11 0 8.80181e-12 0 
0 0 9.57397e-12 2.91437e-11 0 0 0 0 0 
0 0 0 0 0 2.60619e-11 0 8.51852e-11 0 
7.93818e-13 0 5.85599e-11 0 7.81313e-11 0 0 0 0 
0 0 0 0 0 0 0 0 0 
0 9.27415e-12 0 0 0 0 0 0 0 
0 0 1.68644e-11 9.11674e-11 1.70104e-11 0 0 0 0 
0 5.25571e-11 0 3.79195e-11 3.72873e-11 0 0 0 1.04474e-11 
0 2.47346e-11 0 0 0 0 0 0 0 
0 0 0 0 0 0 0 0 0 
0 0 0 0 0 0 0 0 0 
0 0 0 0 0 0 0 0 0 
0 0 0 0 0 0 0 0 0 
0 0 0 0 0 0 0 0 0 
0 3.17878e-12 0 5.28862e-11 0 0 0 0 0 
0 0 0 4.42962e-11 4.77553e-11 0 0 0 0 
0 2.63422e-08 0 2.3763e-10 0 0 9.27618e-12 0 0 
0 1.27359e-10 3.86393e-12 0 0 0 0 0 3.69004e-11 
3.15171e-11 0 0 0 0 2.54401e-11 6.87308e-11 0 0 
0 0 0 0 1.29994e-11 0 0 0 0 
0 0 0 0 0 0 5.14868e-11 0 0 
0 0 9.28369e-11 0 3.07442e-11 0 0 0 0 
0 0 0 0 0 0 4.74126e-11 7.57024e-12 0 
0 1.27265e-10 0 0 0 0 3.56542e-10 0 0 
0 0 0 0 0 0 0 2.00746e-11 0 
0 0 0 0 0 2.13976e-10 0 0 5.43596e-11 
0 0 0 3.40577e-11 5.23283e-11 2.60509e-11 0 0 0 
1.29932e-10 0 0 0 0 2.95572e-10 2.73385e-08 2.57449e-10 0 
0 0 1.22361e-10 0 0 9.09773e-11 0 0 0 
7.02689e-12 0 0 0 0 4.59513e-12 0 0 0 
0 5.3775e-11 1.19745e-10 0 0 0 0 4.46502e-11 6.29466e-11 
0 0 0 0 0 0 0 1.12639e-11 0 
0 0 0 0 8.41255e-12 0 0 0 0 
0 0 0 0 3.42009e-11 0 0 0 0 
1.29452e-12 0 6.88006e-11 0 0 2.35979e-10 0 0 0 
0 0 0 5.56247e-11 0 0 0 0 0 
0 0 4.66314e-13 0 0 2.42922e-12 0 0 0 
0 0 0 0 0 0 0 0 0 
0 0 0 0 0 0 0 0 0 
0 0 0 0 0 0 0 0 0 
0 0 0 0 0 0 0 0 0 
0 0 7.48712e-12 0 0 0 0 4.60863e-11 0 
0 6.70251e-11 0 0 2.47369e-08 0 3.42421e-11 0 0 
3.66009e-11 0 3.50194e-11 0 0 0 0 0 0 
3.5748e-10 0 0 0 0 1.78158e-11 1.40948e-10 0 0 
1.49261e-10 0 0 0 8.73122e-11 9.14111e-12 0 0 0 
0 0 4.02839e-11 1.20168e-11 0 0 4.0362e-11 0 0 
0 0 0 1.9336e-11 0 2.05154e-11 0 2.42939e-11 0 
0 0 0 0 0 2.42383e-10 2.05858e-10 0 0 
0 3.25674e-11 6.51543e-11 9.6884e-11 0 0 1.60127e-10 0 0 
3.62027e-11 0 0 0 0 0 1.00763e-10 9.91771e-11 0 
1.38291e-10 0 1.62702e-10 0 0 9.97365e-11 0 6.13743e-11 0 
0 0 1.4936e-11 0 0 0 0 0 0 
4.17924e-11 0 0 2.44707e-08 1.58492e-10 0 1.0312e-10 0 0 
0 0 0 0 0 1.08412e-10 0 0 1.50347e-10 
2.69495e-12 7.38555e-12 0 0 0 1.84907e-10 0 0 1.91907e-10 
0 0 0 0 0 0 1.62727e-10 0 3.68405e-11 
0 0 0 0 0 0 0 0 1.19187e-10 
0 0 0 6.60879e-11 1.5694e-10 0 0 0 0 
0 0 0 0 0 0 0 3.91568e-12 0 
0 0 0 0 0 0 0 0 7.05992e-12 
0 0 0 0 0 0 1.22219e-10 0 8.39524e-11 
0 0 0 2.49555e-08 0 0 0 0 6.35127e-11 
0 0 3.96853e-11 0 1.91247e-11 0 8.52003e-12 0 0 
0 1.05348e-11 0 0 0 0 0 0 0 
0 0 0 0 0 0 0 0 0 
0 0 0 0 0 0 0 0 0 
0 0 0 0 0 0 0 0 0 
0 0 0 0 0 0 0 0 0 
0 0 0 0 2.30128e-14 0 0 0 1.75967e-12 
0 1.75662e-10 8.26058e-11 1.28678e-10 2.98961e-11 0 0 0 0 
0 0 0 0 0 0 0 0 0 
2.16741e-10 0 0 1.41314e-11 0 1.12914e-10 1.49288e-10 4.74944e-11 0 
0 0 0 0 0 0 0 0 0 
2.92869e-11 0 0 0 0 3.52326e-11 0 7.28465e-11 0 
0 0 0 0 2.13671e-11 0 0 2.3772e-11 0 
6.49009e-11 0 0 0 1.544e-10 0 4.2086e-11 0 0 
2.90798e-10 0 0 2.99984e-10 0 0 0 0 0 
0 0 0 4.05152e-11 0 6.59481e-11 0 0 2.3262e-10 
0 0 0 0 5.20242e-11 1.09731e-12 0 0 0 
0 0 0 0 0 0 0 0 1.4927e-11 
0 0 0 0 9.40635e-11 0 0 4.50677e-11 0 
7.00981e-11 0 0 3.3724e-11 0 0 0 0 9.6476e-11 
0 0 0 0 1.60366e-10 2.74034e-10 2.71302e-08 0 0 
0 7.54743e-12 0 0 0 7.19444e-11 0 0 0 
0 3.56192e-12 0 0 7.14006e-11 0 1.67152e-10 7.75134e-11 0 
0 0 0 0 0 5.00422e-11 0 0 0 
0 0 0 0 0 0 0 0 0 
0 0 0 0 0 0 8.53353e-12 0 0 
0 0 0 2.67875e-11 5.80751e-11 0 0 1.97118e-11 3.3161e-11 
0 0 0 0 0 7.53997e-12 0 6.29501e-11 4.24136e-11 
0 0 0 0 0 7.7281e-12 0 0 0 
0 1.19021e-11 0 0 0 0 0 0 0 
0 0 0 0 0 0 0 0 0 
0 0 0 0 0 0 0 0 0 
0 0 0 0 0 0 0 0 0 
0 0 0 0 0 0 0 0 0 
0 0 0 0 0 0 6.64207e-11 2.01155e-11 0 
1.1487e-10 2.00469e-11 3.26914e-11 0 0 0 6.72871e-12 0 1.90323e-10 
0 0 2.44067e-11 0 0 2.71352e-10 0 0 2.10619e-10 
0 0 1.98939e-12 0 2.68273e-08 0 0 3.91921e-11 0 
4.32977e-11 0 0 0 6.90257e-11 0 0 0 0 
0 0 0 0 0 0 0 0 0 
0 0 0 0 0 6.75254e-11 6.66118e-11 2.35701e-11 0 
0 0 0 0 0 0 0 0 0 
0 0 0 0 0 0 0 0 1.22629e-10 
0 1.57921e-11 1.82318e-10 1.09894e-10 2.85558e-12 0 2.1113e-11 0 0 
0 0 0 0 0 1.3231e-11 0 0 5.34224e-13 
0 0 0 9.00281e-11 0 0 0 0 3.31214e-11 
3.05322e-11 0 1.51554e-10 0 0 7.32623e-12 0 0 0 
0 8.25168e-11 0 0 0 0 0 1.30628e-10 0 
0 0 0 2.29558e-10 0 0 0 0 0 
0 0 0 0 0 4.92505e-11 0 0 0 
0 0 0 3.47775e-11 0 0 0 0 0 
0 0 0 5.12832e-11 5.56376e-11 1.00181e-10 8.10605e-11 0 0 
0 0 0 0 0 0 0 0 0 
0 0 0 3.05801e-11 0 0 0 0 0 
0 0 0 3.44575e-11 0 1.33466e-10 5.13348e-11 0 0 
0 1.88784e-10 0 0 0 0 0 0 0 
0 0 0 0 4.064e-11 0 0 0 0 
0 0 0 0 0 0 0 0 0 
0 0 0 0 0 0 0 0 0 
0 0 0 0 0 0 0 0 0 
0 0 0 0 2.47965e-13 0 0 0 0 
0 0 0 0 0 0 1.63474e-12 0 0 
0 0 5.37482e-11 0 0 5.0708e-11 0 2.88283e-11 1.25456e-11 
0 0 0 0 0 0 0 0 0 
0 1.38864e-10 0 0 0 0 0 0 0 
0 6.97019e-11 2.57121e-10 0 0 9.33932e-11 0 0 0 
3.86981e-11 0 0 1.02619e-11 0 0 0 0 1.70747e-11 
0 0 0 0 0 0 3.06728e-11 0 7.07319e-11 
0 0 0 7.5194e-11 6.93238e-11 0 0 0 3.43968e-13 
1.71144e-10 0 0 3.034e-08 0 0 0 3.48535e-08 0 
0 0 0 1.5992e-10 0 1.05828e-10 0 7.03659e-11 1.79609e-10 
1.39075e-11 2.24144e-11 7.9837e-11 0 0 0 0 6.29439e-11 0 
5.29844e-11 0 0 0 0 0 1.37074e-11 0 0 
0 0 0 0 0 0 0 0 0 
2.23411e-11 0 0 2.26637e-12 7.6867e-11 0 0 0 6.1448e-11 
0 0 0 1.27411e-11 0 0 0 5.96212e-11 0 
8.0026e-11 0 0 0 0 0 0 8.41956e-11 3.55801e-11 
0 0 0 0 0 0 1.57762e-10 0 0 
0 0 0 0 0 0 0 0 0 
0 0 0 0 0 7.42618e-11 6.98876e-11 9.68232e-13 0 
0 0 0 0 1.20707e-11 0 0 0 0 
0 3.76311e-11 0 6.26559e-11 0 0 0 0 0 
0 0 9.55069e-11 0 0 0 0 0 0 
0 0 4.64936e-11 6.41589e-11 2.46547e-11 1.00344e-10 0 5.13654e-11 1.35991e-10 
0 0 0 0 0 0 0 0 0 
0 0 0 0 0 0 0 0 0 
0 0 0 0 0 0 0 0 0 
0 0 0 0 0 0 0 0 0 
0 0 0 0 0 0 0 0 0 
0 0 0 0 0 0 0 0 0 
0 4.61686e-11 0 9.31396e-11 0 6.10972e-11 0 0 0 
0 0 0 1.13614e-10 4.4706e-11 4.12072e-11 0 9.65697e-11 0 
0 0 0 0 0 0 0 0 0 
0 0 0 0 0 4.41218e-12 0 0 0 
0 0 0 0 0 0 1.05206e-10 0 0 
0 0 8.42114e-11 0 0 0 1.10091e-11 0 0 
0 0 0 0 0 7.78571e-11 0 1.75677e-10 0 
0 0 2.48006e-10 0 0 0 0 0 0 
0 0 0 0 2.63279e-08 0 0 0 0 
0 0 0 0 0 0 0 0 0 
0 0 0 0 0 0 0 0 1.36822e-11 
0 0 0 0 2.19491e-11 0 0 0 6.07919e-11 
0 0 0 0 1.38941e-10 0 0 0 0 
5.81717e-11 0 0 0 0 0 1.0566e-10 0 7.76584e-11 
5.7251e-11 9.33653e-11 0 0 0 0 1.21763e-10 0 0 
1.07621e-10 2.49767e-08 0 0 0 1.18582e-10 4.59887e-11 0 0 
0 1.92666e-10 0 0 0 0 2.83861e-08 0 0 
6.69997e-11 0 0 0 0 0 0 0 0 
0 0 0 0 0 0 0 0 0 
0 4.85832e-11 0 0 0 1.0043e-10 6.08356e-11 0 0 
1.38443e-11 0 0 0 0 0 0 0 0 
0 0 0 0 0 0 0 0 7.53311e-11 
4.18297e-11 0 0 0 0 0 0 0 0 
0 0 0 0 0 0 0 0 0 
0 0 0 0 0 0 0 0 0 
0 0 0 0 0 0 0 0 0 
0 0 0 0 0 0 0 0 0 
0 0 0 0 0 0 2.47381e-11 0 0 
0 5.95536e-11 0 0 0 0 0 9.67998e-11 0 
3.98841e-10 0 0 0 2.87643e-11 8.09043e-11 0 0 0 
0 3.85861e-08 3.87972e-08 0 0 0 3.13199e-11 0 0 
0 0 7.08063e-11 9.60099e-12 0 0 0 0 0 
0 0 8.71678e-11 0 0 4.22712e-11 0 0 0 
0 0 2.16344e-11 0 0 0 0 0 0 
0 2.08246e-11 0 0 4.3518e-13 0 0 0 0 
0 0 0 0 3.34041e-08 0 0 2.16803e-10 0 
2.66755e-10 0 2.68625e-10 0 0 8.41017e-12 0 0 3.82938e-12 
0 0 0 0 0 5.14598e-11 0 0 0 
0 0 0 0 0 0 0 0 0 
0 8.25653e-11 0 0 0 0 0 0 0 
0 6.56017e-12 0 0 0 0 0 0 0 
0 0 0 1.14165e-10 0 0 0 1.60344e-10 0 
0 1.01949e-11 0 0 0 0 0 0 0 
0 7.30025e-11 4.71986e-12 0 1.03145e-10 5.12733e-11 0 2.16798e-10 0 
0 0 0 0 9.81145e-11 1.53657e-13 0 0 2.79891e-11 
0 0 0 0 0 0 0 0 0 
0 0 0 0 1.36584e-11 1.95186e-11 0 0 2.26701e-11 
0 0 0 0 2.54875e-10 0 0 1.36472e-10 0 
4.5703e-11 1.24205e-10 0 0 0 1.12844e-10 2.26973e-10 0 0 
0 0 0 0 0 0 0 0 1.45409e-11 
0 0 0 0 1.2785e-11 9.28577e-12 0 1.31542e-12 0 
0 0 0 0 0 0 0 0 0 
0 0 0 0 0 0 0 0 0 
0 0 0 0 0 0 0 0 0 
0 0 0 0 0 0 0 0 0 
0 0 0 0 2.03072e-11 0 0 0 0 
0 0 6.23489e-11 0 0 0 0 0 0 
0 7.2645e-12 0 0 5.15045e-11 0 8.8287e-11 0 0 
0 0 2.27708e-10 0 0 8.66332e-11 1.0731e-10 0 0 
0 0 2.92544e-11 0 0 0 0 0 0 
4.97929e-12 0 0 8.34887e-11 0 1.11458e-10 0 0 0 
0 0 0 0 0 0 0 0 0 
0 0 0 0 0 0 1.12591e-11 0 1.94971e-11 
0 4.86389e-10 0 0 0 5.77105e-11 0 2.39615e-11 0 
5.33342e-11 0 0 0 0 0 7.97347e-11 0 0 
0 9.60977e-11 0 0 5.57129e-11 0 0 4.24327e-11 0 
0 0 0 0 0 2.93966e-11 0 0 0 
0 0 0 0 8.72665e-12 0 0 0 0 
0 0 0 0 0 0 0 0 0 
0 3.51782e-11 5.51542e-11 0 0 0 0 0 0 
4.11668e-11 0 0 8.7234e-11 0 0 0 0 0 
0 0 0 0 0 2.24552e-11 0 5.53151e-11 0 
5.89155e-11 0 0 2.19138e-10 0 0 0 4.06719e-11 0 
6.44993e-12 0 0 0 0 0 0 0 0 
0 0 0 0 0 0 0 0 0 
1.93076e-10 1.73476e-10 2.68663e-08 0 0 1.98667e-10 0 0 0 
0 0 4.73444e-11 5.80971e-13 0 2.29316e-11 0 0 0 
0 0 0 1.54003e-11 0 0 0 0 0 
0 0 0 0 0 0 0 0 0 
0 0 0 0 0 0 0 0 0 
0 0 0 0 0 0 0 0 0 
0 0 0 0 0 0 0 0 0 
0 0 0 0 0 0 0 0 0 
0 0 0 0 0 0 0 5.20399e-11 0 
0 3.04201e-11 0 0 0 2.68518e-08 0 3.8752e-10 1.08355e-10 
0 0 0 0 2.83131e-10 2.92079e-10 0 0 0 
5.70705e-11 2.0018e-10 0 0 1.19452e-10 0 0 0 0 
0 0 0 0 0 0 0 0 0 
0 0 0 3.31827e-11 1.02531e-10 9.78591e-11 0 3.014e-10 0 
0 2.10538e-11 0 0 0 0 5.57784e-11 0 0 
0 0 0 1.0759e-10 2.401e-11 0 4.13855e-11 3.01695e-12 0 
0 0 4.29586e-11 0 1.02936e-10 9.585e-12 1.28682e-11 0 0 
9.36603e-11 0 4.26446e-12 1.04716e-11 0 0 0 6.05106e-11 0 
0 0 0 0 0 0 0 0 0 
0 0 0 0 2.96391e-11 0 4.23721e-11 0 0 
0 0 0 0 0 0 0 0 0 
0 0 0 0 1.1633e-12 0 4.47031e-11 0 0 
0 0 1.23268e-10 0 0 0 0 3.51738e-12 0 
0 0 0 0 0 5.24101e-11 0 0 1.09907e-11 
1.38701e-10 0 0 0 0 0 0 0 1.87157e-10 
2.75094e-10 0 0 0 9.86111e-11 0 0 2.52481e-11 0 
1.73134e-11 0 0 0 0 0 0 0 0 
0 0 0 0 0 0 0 0 0 
1.08976e-10 8.20658e-11 6.99743e-11 0 0 0 0 0 0 
0 0 2.00858e-10 3.0026e-11 4.66295e-11 1.14725e-10 0 3.11691e-08 0 
0 0 0 0 0 0 0 0 0 
0 0 0 0 0 0 0 0 0 
0 0 0 0 0 0 0 0 0 
0 0 0 0 0 0 0 0 0 
0 0 0 0 0 0 0 0 0 
0 0 0 0 0 0 0 0 0 
0 0 0 0 0 0 0 2.48147e-10 4.09862e-11 
0 0 0 0 2.81168e-10 1.61568e-10 6.38178e-13 4.31698e-12 0 
0 3.37023e-11 0 1.88494e-10 0 0 0 0 0 
3.31165e-11 0 0 0 0 0 0 0 0 
0 0 0 0 0 0 0 1.37472e-10 0 
0 1.31079e-10 0 0 0 0 6.15525e-11 0 3.24921e-11 
1.67556e-11 0 0 5.48656e-11 0 3.47687e-11 0 0 0 
0 0 0 0 0 4.57027e-11 2.12707e-10 2.88559e-11 0 
0 0 0 2.58827e-11 0 0 0 1.91421e-11 0 
0 9.91826e-11 0 9.69515e-13 0 0 0 0 0 
0 5.23441e-11 1.36152e-10 0 0 0 0 0 1.73544e-11 
1.51927e-11 0 6.10799e-11 0 0 0 0 0 0 
1.22521e-10 0 0 0 0 0 0 0 9.35159e-11 
0 0 0 0 0 0 0 0 0 
0 0 0 0 0 0 3.32829e-11 7.8586e-11 0 
1.35458e-11 1.07694e-10 0 0 0 0 0 0 0 
1.00744e-10 0 0 0 0 0 0 0 0 
0 2.65236e-08 0 0 0 0 0 4.54938e-11 0 
0 0 0 0 0 0 0 0 0 
2.53409e-11 0 0 0 1.17828e-10 0 0 0 3.21953e-10 
0 0 0 1.50666e-10 0 0 0 0 0 
0 0 7.61121e-11 0 0 0 0 0 0 
0 0 0 5.12332e-11 0 0 0 0 0 
0 0 0 0 0 0 0 0 0 
0 0 0 0 0 0 0 0 0 
0 0 0 0 0 0 0 0 0 