# vtk DataFile Version 5.1
vtk output
ASCII
DATASET STRUCTURED_POINTS
DIMENSIONS 250 250 1
SPACING 1 1 1
ORIGIN 0 0 0
POINT_DATA 62500
FIELD FieldData 6
feature_1 1 62500 float
0 0 0 0 0 0 0 0 0 
0 0 0 0 0 0 0 0 0 
0 0 0 0 0 0 0 0 0 
0 0 0 0 0 0 0 0 0 
0 0 0 0 0 0 0 0 0 
0 0 0 0 0 0 0 0 0 
0 0 0 0 0 0 0 0 0 
0 0 0 0 0 0 0 0 0 
0 0 0 0 0 0 0 0 0 
0 0 0 0 0 0 0 0 0 
0 0 0 0 0 0 0 0 0 
0 0 0 0 0 0 0 0 0 
0 0 0 0 0 0 0 0 0 
0 0 0 0 0 0 0 0 0 
0 0 0 0 0 0 0 0 0 
0 0 0 0 0 0 0 0 0 
0 0 0 0 0 0 0 0 0 
0 0 0 0 0 0 0 0 0 
0 0 0 0 0 0 0 0 0 
0 0 0 0 0 0 0 0 0 
0 0 0 0 1.20611e-12 0 0 0 0 
0 0 0 0 0 0 0 0 0 
0 0 0 0 0 0 0 0 0 
0 1.89359e-13 0 0 9.20446e-13 0 0 0 0 
0 0 0 0 0 0 0 0 0 
0 0 0 0 0 0 0 0 0 
0 0 0 0 0 0 0 0 0 
0 0 0 0 0 0 0 0 0 
0 0 0 0 0 0 0 0 0 
0 0 0 0 0 0 0 0 0 
0 0 0 0 0 0 0 0 0 
0 0 0 0 0 0 0 0 0 
0 0 0 0 0 0 0 0 0 
0 0 0 0 0 0 0 0 0 
0 0 0 0 0 0 0 0 0 
0 0 0 0 0 0 0 0 0 
0 0 0 0 0 0 0 0 0 
0 0 0 0 0 0 0 0 0 
0 0 0 0 0 0 0 0 0 
0 0 0 0 0 0 0 0 0 
0 0 0 0 0 0 0 0 0 
0 0 0 0 0 0 0 0 0 
0 0 0 0 0 0 0 0 0 
0 0 0 0 0 0 0 0 0 
0 0 0 0 0 0 0 0 0 
0 0 0 0 0 0 0 0 0 
0 0 0 0 0 0 0 0 0 
0 0 0 0 0 0 0 0 0 
0 0 0 0 0 0 0 0 0 
0 0 0 0 0 0 0 0 0 
0 0 0 0 0 0 0 0 0 
0 0 0 0 0 0 0 0 8.4475e-14 
0 0 0 0 0 0 0 0 0 
0 0 0 0 0 0 0 0 0 
0 0 0 0 0 0 0 0 0 
0 0 0 0 0 0 0 0 0 
0 0 0 0 0 0 0 0 0 
0 0 0 0 0 0 0 0 0 
0 0 0 0 0 0 0 0 0 
0 0 0 0 0 0 0 0 0 
0 0 0 0 0 0 0 0 0 
0 0 0 0 0 0 0 0 0 
0 0 0 0 0 0 0 0 0 
0 0 0 0 0 0 0 0 0 
0 9.86737e-13 0 0 0 0 0 0 0 
0 0 0 0 0 0 0 0 0 
0 0 0 0 0 0 0 0 0 
0 0 0 0 0 0 0 0 0 
0 0 0 0 0 0 0 0 0 
0 0 0 0 0 0 0 0 0 
0 0 9.4121e-13 0 0 0 0 0 0 
0 0 0 0 0 0 0 0 0 
0 0 0 0 0 0 0 0 0 
0 0 0 0 0 0 0 0 0 
0 0 0 0 0 0 0 0 0 
0 0 0 0 0 0 0 0 0 
0 0 0 0 0 0 0 0 0 
0 0 0 0 0 0 0 0 0 
0 0 0 2.07334e-13 0 0 0 0 0 
0 0 0 0 0 0 0 0 0 
0 0 0 0 0 0 0 0 0 
0 0 0 0 0 0 0 0 0 
0 0 0 0 0 0 0 0 0 
0 0 0 0 0 0 0 0 0 
0 0 0 0 0 0 0 0 0 
0 0 0 0 0 0 0 0 0 
0 0 0 0 0 0 0 0 0 
0 0 0 0 0 0 0 0 0 
0 0 0 0 0 0 1.06237e-12 0 0 
0 0 0 0 0 0 0 0 0 
0 0 0 0 0 0 0 0 0 
0 0 0 0 0 0 0 0 0 
1.61551e-12 0 0 0 0 0 0 0 0 
0 0 0 0 0 0 0 0 0 
0 0 0 0 0 0 0 0 0 
0 0 0 0 0 0 0 0 0 
0 0 0 0 0 0 0 0 0 
0 0 0 0 0 0 0 0 0 
0 0 0 0 0 0 0 0 0 
0 0 0 0 0 0 0 0 0 
0 0 0 0 0 0 0 0 0 
0 0 0 0 0 0 0 0 0 
0 0 0 0 0 0 0 0 0 
0 0 0 0 0 0 0 0 0 
0 0 0 0 0 0 0 0 0 
0 0 0 0 0 0 0 0 0 
0 0 0 0 0 0 0 0 0 
0 0 0 0 0 0 0 0 5.08004e-13 
0 0 0 0 0 0 0 0 0 
0 0 0 0 0 0 0 0 0 
0 0 0 0 0 0 0 0 0 
0 0 0 0 0 0 0 0 0 
0 0 0 0 0 0 0 0 0 
0 0 0 0 0 0 0 0 0 
0 0 0 0 0 0 0 0 0 
0 0 0 0 0 0 0 0 0 
0 0 0 0 0 0 0 0 0 
0 0 0 0 0 0 0 0 0 
0 0 0 0 0 0 0 0 0 
0 0 0 0 6.22141e-14 0 0 0 0 
0 0 0 0 0 0 0 2.48709e-12 0 
0 0 0 0 0 0 7.757e-13 0 0 
0 0 0 0 0 0 0 0 0 
0 0 0 0 0 0 0 0 0 
0 0 0 0 0 0 0 0 0 
0 0 0 0 0 0 0 0 0 
0 0 0 0 0 0 0 0 0 
0 0 0 0 0 0 0 0 0 
0 0 0 0 0 0 0 0 0 
0 0 0 0 0 0 0 0 0 
0 0 0 0 0 0 0 0 0 
0 0 0 0 0 0 0 0 0 
0 0 0 0 9.90885e-13 0 0 0 0 
0 0 0 0 0 0 0 0 0 
0 0 0 0 0 0 0 0 0 
0 0 0 0 0 0 0 0 0 
0 0 0 0 0 0 0 0 0 
0 0 0 0 0 0 0 0 0 
3.33433e-12 0 0 0 0 0 0 0 0 
0 0 0 0 0 0 0 0 0 
0 0 0 0 0 0 0 0 0 
0 0 0 0 0 0 0 0 0 
0 0 0 0 0 0 0 0 0 
0 0 0 0 0 0 0 2.43336e-12 0 
0 0 0 0 0 0 0 0 0 
0 0 0 0 0 0 0 0 0 
0 0 0 0 0 0 0 0 0 
0 0 0 0 0 0 0 0 0 
0 0 0 0 0 0 0 0 0 
0 0 0 0 0 0 0 0 0 
0 0 0 0 0 0 0 0 0 
0 0 0 0 0 0 0 0 0 
0 0 0 0 0 0 0 0 0 
0 0 0 0 0 0 0 0 0 
0 0 0 0 0 0 0 0 0 
0 0 0 0 0 0 0 0 0 
0 0 0 0 0 0 0 0 0 
0 0 0 0 0 0 0 0 0 
0 0 0 0 0 0 0 0 0 
4.32836e-13 1.35421e-13 0 0 0 0 0 0 0 
0 0 0 0 0 0 0 0 0 
0 0 0 0 0 0 0 0 0 
0 0 0 0 0 0 0 0 0 
0 0 0 0 0 0 0 0 0 
0 0 0 0 0 0 0 0 0 
0 0 0 0 0 0 0 0 0 
0 0 0 0 0 0 0 0 0 
0 0 0 0 0 0 0 0 0 
0 0 0 0 0 0 0 0 0 
0 0 0 0 0 0 3.87311e-12 0 0 
0 0 0 0 0 0 0 0 0 
0 0 0 0 0 0 0 0 0 
0 0 0 0 0 0 0 0 0 
0 0 0 0 0 0 0 0 0 
0 0 0 0 0 0 0 0 0 
0 0 0 0 0 0 0 0 0 
0 0 0 0 0 0 0 0 0 
0 0 0 0 0 0 0 0 0 
0 0 0 0 0 0 0 0 0 
0 0 0 0 0 0 0 0 0 
0 4.0626e-13 0 0 0 0 0 0 0 
0 0 0 0 0 0 0 0 0 
0 0 0 0 0 0 0 0 0 
0 0 0 0 0 0 0 0 0 
0 0 0 0 0 0 0 0 0 
0 0 0 0 0 0 0 0 0 
0 0 0 0 0 0 0 0 0 
0 0 0 0 0 0 0 0 0 
0 0 0 0 0 0 0 0 0 
0 0 0 0 0 0 0 0 0 
0 0 0 0 0 0 0 0 0 
0 0 0 0 0 0 0 0 0 
0 0 0 0 0 0 0 0 0 
0 0 0 0 0 0 0 0 0 
0 0 0 0 0 0 0 0 0 
0 0 0 0 0 0 0 0 0 
0 0 0 0 0 0 0 0 0 
0 0 0 0 0 0 0 0 0 
0 0 0 0 0 0 0 0 0 
0 0 0 0 0 0 0 0 0 
0 0 0 0 0 0 0 0 0 
0 0 0 0 0 0 0 0 0 
0 2.0437e-12 0 0 8.71941e-14 0 5.30104e-13 0 0 
0 0 0 0 0 0 0 0 0 
0 0 0 0 0 0 0 0 0 
0 0 0 0 0 0 0 0 0 
0 0 0 0 0 0 0 0 0 
0 0 0 0 0 0 0 0 0 
0 0 0 0 0 0 0 0 0 
0 0 0 0 0 0 0 0 0 
2.09171e-12 0 0 0 0 0 0 0 0 
0 0 0 0 0 0 0 0 0 
0 0 0 0 0 0 0 0 0 
0 0 0 0 0 0 0 0 0 
0 0 0 0 0 0 0 0 0 
0 0 0 0 0 0 0 0 0 
0 1.3567e-12 0 0 0 0 0 0 0 
0 0 0 0 0 0 0 0 0 
0 0 0 0 0 0 0 0 0 
0 0 0 0 0 0 0 0 0 
0 0 0 0 0 0 0 0 0 
0 0 0 0 0 3.07269e-12 0 0 0 
0 0 0 0 0 0 0 0 0 
0 0 0 0 0 0 0 0 0 
0 0 0 0 0 0 0 0 0 
0 0 0 0 0 0 0 0 0 
0 0 0 0 0 0 0 0 0 
0 0 0 0 0 0 0 0 0 
0 0 0 0 0 0 0 0 0 
0 0 0 0 0 0 0 0 0 
0 0 0 0 0 0 0 0 0 
0 0 0 0 0 0 0 0 0 
0 0 0 0 0 0 0 0 0 
0 0 0 0 0 0 0 0 0 
0 0 0 0 0 0 0 0 0 
0 0 0 0 0 0 0 0 0 
0 0 0 0 0 0 0 0 0 
0 0 0 0 0 0 0 0 0 
0 0 0 0 0 0 0 0 0 
0 0 0 0 0 0 0 0 0 
0 0 0 0 0 0 0 0 0 
0 0 0 0 2.04957e-12 0 0 0 0 
0 0 0 0 0 0 0 0 0 
0 0 0 0 0 0 0 0 0 
0 0 0 0 0 0 0 0 0 
0 0 0 0 0 0 0 0 0 
0 0 0 0 0 0 0 0 0 
0 0 0 0 3.11055e-13 2.23772e-13 0 8.98636e-13 0 
0 0 0 0 0 0 0 0 0 
0 1.0331e-12 0 0 0 0 0 0 0 
0 0 0 0 0 0 0 0 0 
0 0 0 0 0 0 0 0 0 
0 0 0 0 0 0 0 0 0 
0 0 0 0 0 0 0 0 0 
0 0 0 1.70644e-12 0 0 0 0 0 
0 0 0 0 0 0 0 0 0 
0 0 0 0 0 0 0 0 0 
0 0 0 0 0 0 0 0 0 
0 0 0 0 0 0 0 0 0 
0 0 0 0 0 0 0 0 0 
0 0 0 0 1.81661e-12 0 0 0 0 
0 0 0 0 0 0 0 0 0 
0 0 0 0 0 0 0 0 0 
0 0 0 0 0 0 0 0 0 
0 0 0 0 0 0 0 0 0 
0 0 0 0 0 0 0 0 0 
0 0 0 0 0 0 0 0 0 
0 0 0 0 0 0 0 0 0 
0 0 0 0 0 0 0 0 0 
0 0 0 0 0 0 0 0 0 
0 0 0 0 0 0 0 0 0 
0 0 0 0 0 0 0 0 0 
0 0 0 0 0 0 0 0 0 
0 0 0 0 0 0 0 0 0 
0 0 0 0 0 0 0 0 0 
0 0 0 0 0 0 0 0 0 
0 0 0 0 0 0 0 0 0 
0 0 0 0 0 0 0 0 0 
0 0 0 0 0 0 0 0 0 
0 0 0 0 0 0 0 0 0 
0 0 0 0 0 0 0 0 0 
0 0 0 0 0 0 0 0 0 
0 0 0 0 0 0 0 0 0 
0 2.58375e-13 0 0 0 0 0 0 0 
0 0 0 0 0 1.59984e-12 0 0 0 
0 0 0 0 0 0 0 0 0 
0 0 0 0 0 0 0 0 0 
0 0 0 0 0 0 0 0 0 
0 0 0 0 0 0 0 0 0 
0 0 0 0 0 0 0 0 0 
0 0 0 0 0 0 0 0 0 
0 0 0 0 0 0 0 0 0 
0 0 0 0 0 0 0 0 0 
0 0 0 0 0 0 0 0 0 
0 0 0 0 0 0 0 0 0 
0 0 0 0 0 0 0 0 0 
0 0 0 0 0 0 0 0 0 
0 0 0 0 0 0 0 0 0 
0 0 0 0 0 0 8.72141e-14 0 0 
0 0 0 0 0 0 0 0 0 
0 0 0 0 0 1.62906e-12 0 0 0 
0 0 0 0 0 0 0 0 0 
0 0 0 0 0 0 0 0 0 
0 0 0 0 0 0 0 0 0 
0 0 0 0 0 0 0 0 0 
0 0 0 0 0 0 0 0 0 
0 0 0 0 0 0 0 0 0 
0 0 0 0 0 0 0 0 0 
0 0 0 0 0 0 0 0 0 
0 0 0 0 0 0 0 0 0 
0 0 0 3.84059e-14 0 0 0 0 0 
0 0 0 0 0 0 0 0 0 
0 0 2.50903e-12 0 0 0 0 0 0 
0 0 0 0 0 0 0 0 0 
0 0 0 0 0 0 0 0 0 
0 0 0 0 0 0 0 0 0 
0 0 0 0 0 0 0 0 0 
0 0 0 0 0 0 0 0 0 
0 0 0 0 0 0 0 0 0 
0 0 0 0 0 0 0 0 0 
0 0 0 0 0 0 0 0 0 
0 0 0 0 0 0 0 0 0 
0 0 0 0 0 0 0 0 0 
0 0 0 0 0 0 0 0 0 
0 0 0 0 0 0 0 0 0 
0 0 0 0 0 0 0 0 0 
0 0 0 0 0 0 0 0 0 
0 0 0 0 0 0 0 0 3.86188e-13 
0 0 0 0 0 0 0 0 0 
0 0 0 0 0 0 0 0 0 
0 0 0 0 0 0 0 0 0 
0 0 0 0 0 0 0 0 0 
0 0 0 0 0 0 0 0 0 
0 0 0 0 0 0 0 0 0 
0 0 0 0 0 0 0 0 0 
0 0 0 0 0 0 0 0 0 
0 0 0 0 0 0 0 0 0 
0 0 0 0 0 0 0 0 0 
0 0 0 0 0 0 0 0 0 
0 0 0 0 0 0 0 0 0 
0 0 0 0 0 0 0 0 0 
0 0 0 0 0 0 0 0 0 
0 0 0 0 0 0 0 0 0 
0 0 0 0 0 0 0 0 0 
0 0 0 0 0 0 0 0 0 
0 0 0 0 0 0 0 0 0 
0 0 0 0 0 0 0 0 0 
0 0 0 0 0 0 0 0 0 
0 0 0 0 0 1.31948e-13 0 0 0 
0 0 0 0 0 0 0 0 0 
0 0 0 0 0 0 1.05683e-13 0 0 
0 0 0 0 0 0 0 0 0 
0 0 0 0 0 0 0 0 0 
0 0 0 0 0 0 0 0 0 
0 0 0 0 0 0 0 0 0 
0 0 0 0 0 0 0 0 0 
0 0 0 0 0 0 0 0 0 
0 0 0 0 0 0 0 0 0 
0 0 0 0 0 0 0 0 0 
0 0 0 0 0 0 0 0 0 
0 0 0 0 0 0 0 0 0 
0 0 0 0 0 0 0 0 0 
0 0 0 0 0 0 0 0 0 
0 0 0 0 0 0 0 0 0 
0 0 0 0 0 0 0 0 0 
0 0 0 0 0 0 0 0 0 
0 0 0 0 0 0 0 0 0 
0 0 0 0 0 0 0 0 0 
0 0 0 0 0 0 0 0 0 
0 0 0 0 0 0 0 0 0 
0 0 0 0 0 0 0 0 0 
0 0 0 0 0 0 0 0 0 
0 0 0 0 0 0 0 0 0 
0 0 0 0 0 0 0 0 0 
0 0 0 0 0 0 0 0 0 
0 0 0 0 0 0 0 0 0 
0 0 0 0 0 0 0 0 0 
0 0 0 0 0 0 0 0 0 
0 0 0 0 0 0 0 0 0 
0 0 0 0 0 0 0 0 0 
0 0 0 0 0 0 0 0 0 
0 0 1.63867e-12 0 0 0 0 0 0 
0 0 0 0 0 0 0 0 0 
0 0 0 0 0 0 0 0 0 
0 0 0 0 0 0 0 0 0 
0 0 0 0 0 0 0 0 0 
0 0 0 0 0 0 0 0 0 
0 0 0 0 0 0 0 0 0 
0 0 0 0 0 0 0 0 0 
0 0 0 0 0 0 0 0 0 
0 0 0 0 0 0 0 0 0 
0 0 0 0 0 0 0 0 0 
0 0 0 0 0 0 0 0 0 
0 0 0 0 0 0 0 0 0 
0 0 0 0 0 0 0 0 0 
0 0 0 0 0 0 0 0 0 
0 0 0 0 0 0 0 0 0 
0 0 0 0 0 0 0 0 4.003e-13 
0 0 0 0 0 0 0 0 0 
0 0 0 0 0 0 0 0 0 
0 0 0 0 0 0 0 0 0 
0 0 0 0 0 0 0 0 0 
0 0 0 0 0 0 0 0 0 
0 0 0 0 0 0 0 0 0 
0 0 0 0 0 0 0 0 0 
0 0 0 0 0 0 0 0 0 
0 0 0 0 0 0 0 0 0 
0 0 0 0 0 0 0 0 0 
0 1.01161e-12 0 0 0 0 0 0 0 
0 0 0 0 0 0 0 0 0 
0 0 0 0 0 0 0 0 0 
0 0 0 0 0 0 0 0 0 
0 0 0 0 0 0 0 0 0 
0 0 0 0 0 0 0 0 0 
0 0 0 0 0 0 0 0 0 
0 0 0 0 1.19634e-12 0 0 0 0 
0 0 0 0 0 0 1.67026e-12 0 0 
0 0 0 0 0 0 0 0 0 
0 0 0 0 0 0 0 0 0 
0 0 0 0 0 0 0 0 0 
0 0 0 0 0 0 0 0 0 
0 0 0 0 0 0 0 0 0 
0 0 0 0 0 0 0 0 0 
0 0 0 0 0 0 0 0 0 
0 0 0 0 0 0 0 0 0 
0 0 0 0 0 0 0 0 0 
0 0 0 0 0 0 0 0 0 
0 0 0 0 0 0 0 0 0 
0 0 1.96633e-12 0 0 0 0 0 0 
0 0 0 0 0 0 0 0 0 
0 0 0 0 0 0 0 0 0 
0 0 0 0 0 0 0 0 0 
0 0 0 0 0 0 0 0 0 
0 0 0 0 0 0 0 0 0 
0 0 0 0 0 0 0 0 0 
0 0 0 0 0 0 0 0 0 
0 0 0 0 0 0 0 0 0 
0 0 0 0 0 0 0 0 0 
0 0 0 0 0 0 0 0 0 
0 0 0 0 0 0 0 0 0 
0 0 0 0 0 0 3.23587e-13 0 0 
0 0 0 0 0 0 0 0 1.49224e-12 
0 0 0 0 0 0 0 0 0 
0 0 0 0 0 0 0 0 0 
0 0 0 0 0 0 0 0 0 
0 0 0 0 0 0 0 0 0 
0 1.16242e-12 0 0 0 0 0 0 0 
0 0 0 0 0 0 0 0 0 
0 0 0 0 0 0 0 0 0 
0 0 0 0 0 0 0 0 0 
0 0 0 3.40685e-13 0 0 0 0 0 
0 0 0 0 0 0 0 0 0 
2.82668e-13 0 0 0 0 0 0 0 0 
0 0 0 0 0 0 0 0 0 
0 0 0 0 0 0 0 0 0 
0 0 0 0 0 0 0 0 0 
0 0 0 0 0 0 0 0 0 
0 0 0 0 0 0 0 0 0 
0 0 0 0 0 0 0 0 0 
0 0 0 0 0 0 0 0 0 
0 0 0 0 5.09755e-12 0 0 0 0 
2.69279e-13 0 0 0 0 0 0 0 0 
0 0 0 0 0 0 0 0 0 
0 0 0 0 0 0 0 0 0 
0 0 0 0 0 0 0 0 0 
0 0 0 0 0 0 0 0 0 
0 0 0 0 0 0 4.04391e-13 0 0 
0 0 0 0 0 0 0 0 0 
0 0 0 0 0 0 0 0 0 
0 0 0 0 0 0 0 0 0 
0 0 0 0 0 0 0 0 0 
0 0 0 0 0 0 0 0 0 
0 0 0 0 0 0 0 0 0 
0 0 0 0 0 0 0 0 0 
0 0 0 0 0 8.35763e-13 0 0 0 
0 0 0 0 0 0 0 0 0 
0 0 0 0 0 0 0 0 0 
0 0 0 3.27892e-12 0 0 0 0 0 
0 0 0 0 0 0 0 0 0 
0 0 0 0 0 0 0 0 0 
0 2.80745e-12 0 0 0 0 0 0 0 
0 0 0 0 0 0 0 0 0 
0 0 0 0 0 0 0 0 0 
0 0 0 0 0 0 0 0 0 
0 0 0 0 0 0 0 0 0 
0 0 0 0 0 0 0 0 0 
0 0 0 0 0 0 0 0 0 
2.3839e-12 0 0 0 0 0 0 0 0 
0 0 0 0 0 0 0 0 0 
0 0 0 0 0 0 0 0 0 
0 0 0 0 0 0 0 0 0 
0 0 0 0 0 0 0 0 0 
0 0 0 0 0 0 0 0 0 
0 0 0 0 0 0 0 0 0 
0 0 0 0 0 0 0 0 0 
0 0 0 0 0 0 0 0 0 
0 0 0 0 0 0 0 0 0 
0 0 0 0 0 0 0 0 0 
0 0 0 0 0 0 0 0 0 
0 0 0 0 0 0 0 0 0 
0 0 0 0 0 0 0 0 0 
0 0 0 0 0 0 0 0 0 
0 0 0 0 0 0 0 0 0 
0 0 0 0 0 0 0 0 0 
0 0 0 0 0 0 0 0 0 
0 0 0 0 0 0 0 0 0 
0 0 0 0 0 0 0 0 0 
0 0 0 0 0 0 0 0 0 
0 0 0 0 0 0 0 0 0 
0 0 0 0 0 0 0 0 0 
0 0 0 1.00435e-11 0 0 0 0 0 
0 0 0 0 0 0 0 0 0 
0 0 0 0 0 0 0 0 0 
0 0 0 0 0 0 0 0 0 
0 0 0 0 0 0 0 0 0 
0 0 3.30743e-12 0 0 0 0 0 0 
0 0 0 0 0 0 0 0 0 
0 0 0 0 0 0 0 0 0 
0 0 0 0 0 0 0 0 0 
0 0 0 0 0 0 0 0 0 
0 0 0 2.0972e-13 0 0 0 0 0 
4.62876e-13 0 0 0 0 0 0 0 0 
0 0 0 0 0 0 0 0 0 
0 0 0 0 0 0 0 0 0 
0 0 0 0 6.89335e-13 0 0 0 3.30665e-13 
0 0 0 0 0 0 0 0 0 
0 0 0 0 0 0 0 0 0 
0 0 0 0 0 0 0 0 0 
0 0 0 0 0 0 0 0 0 
0 0 0 0 0 0 0 0 0 
0 0 0 0 0 0 0 0 0 
0 0 0 0 0 0 0 0 0 
0 0 0 0 0 0 0 0 0 
0 0 0 0 0 0 0 0 0 
0 0 0 0 0 7.34173e-12 0 0 0 
0 0 0 0 0 0 0 0 0 
0 0 0 0 0 0 0 0 0 
0 0 0 0 0 0 0 0 9.42532e-12 
0 0 0 1.96035e-12 0 0 0 0 0 
0 0 0 0 0 0 0 0 0 
0 0 0 1.20913e-12 0 0 0 2.35624e-12 0 
0 0 0 0 0 0 0 0 0 
0 0 0 0 0 0 0 0 0 
0 0 0 0 0 0 0 0 0 
0 0 0 0 0 5.54224e-12 0 0 0 
0 0 0 0 0 0 0 0 0 
0 0 0 0 0 0 0 0 0 
0 0 0 0 0 0 0 0 0 
0 0 0 0 0 0 0 0 0 
0 0 0 0 0 0 0 9.51808e-13 0 
0 0 0 0 0 0 0 0 0 
4.18888e-13 0 0 0 0 0 0 0 0 
0 0 0 0 0 0 0 0 0 
0 0 0 0 0 0 0 0 0 
0 0 0 0 0 0 0 0 0 
0 0 0 0 0 0 0 0 0 
0 0 0 0 0 0 0 0 0 
0 0 0 0 0 0 0 0 0 
0 0 0 0 0 0 0 0 0 
0 0 0 0 0 0 0 0 0 
0 0 0 0 0 0 0 0 0 
0 0 0 0 0 0 0 0 0 
0 0 0 0 1.35516e-12 0 0 0 0 
1.00784e-11 0 0 0 3.10908e-11 9.64891e-12 0 0 0 
0 0 0 0 0 0 0 0 0 
0 2.30776e-11 0 0 0 0 0 0 2.23598e-11 
0 0 0 0 0 0 0 0 0 
0 0 0 0 0 0 0 0 0 
0 0 0 0 0 0 0 0 0 
2.57191e-13 0 0 0 0 0 0 0 0 
0 3.19952e-12 0 0 0 0 0 0 0 
0 0 0 0 0 0 0 0 0 
0 0 0 0 0 0 0 0 0 
0 0 0 0 0 0 0 0 0 
0 0 0 0 0 0 0 0 0 
0 0 0 0 0 0 0 0 0 
0 0 0 0 0 0 0 0 0 
0 0 0 0 0 0 0 0 0 
0 1.48184e-12 0 0 0 0 0 0 0 
0 0 0 0 0 0 0 0 0 
0 0 9.28248e-13 0 0 0 0 0 0 
0 0 0 0 0 0 0 0 0 
0 0 0 0 0 0 3.23158e-12 0 0 
0 0 0 0 0 0 0 0 0 
0 0 0 0 0 0 0 0 0 
0 0 0 0 0 6.56706e-12 0 0 0 
0 0 0 0 0 0 0 0 0 
0 0 0 9.30792e-13 0 0 0 0 0 
0 0 0 0 0 0 0 0 0 
0 0 8.38129e-12 0 0 0 0 0 0 
0 0 0 0 0 1.79078e-11 1.52715e-11 0 0 
0 0 0 0 0 0 0 0 0 
0 0 0 0 0 0 0 0 0 
0 0 0 0 0 0 0 0 0 
1.21477e-11 0 0 0 0 2.5343e-11 0 0 0 
0 0 0 0 0 1.33993e-11 0 0 0 
0 0 0 0 0 0 0 0 0 
0 0 0 0 0 0 0 0 0 
0 0 0 0 0 0 0 0 0 
0 0 0 0 0 1.38023e-11 0 1.67905e-11 0 
0 0 0 0 0 0 0 1.60771e-12 0 
0 0 0 0 0 0 0 0 0 
0 0 0 0 0 0 0 0 0 
1.40565e-12 0 0 0 0 0 0 0 0 
0 0 0 0 0 0 0 0 0 
0 0 0 0 0 0 0 0 0 
0 0 0 0 0 0 0 5.62011e-12 0 
0 0 0 0 0 0 0 0 0 
0 0 0 0 0 0 0 0 0 
0 0 0 0 0 0 0 0 0 
0 0 0 0 0 0 0 0 0 
0 0 0 0 0 0 0 0 0 
0 0 0 0 0 0 0 0 0 
0 0 0 0 0 0 0 0 0 
0 0 0 0 0 0 0 0 0 
0 0 0 0 0 0 0 0 0 
0 0 0 0 0 0 0 0 0 
0 0 0 0 0 0 0 0 0 
0 0 0 0 0 1.74859e-11 0 2.80295e-11 0 
0 0 0 0 0 0 0 0 0 
0 0 0 0 2.52107e-11 0 2.79808e-11 0 0 
9.42478e-12 0 0 0 0 0 0 0 0 
3.29885e-11 0 0 0 0 0 0 0 0 
0 1.4739e-11 2.00768e-11 0 0 0 0 0 0 
0 0 0 0 0 0 0 0 0 
0 0 0 0 0 0 0 0 1.32622e-13 
0 0 0 0 0 0 7.16974e-12 0 0 
0 0 0 1.91153e-12 0 0 0 0 0 
0 0 0 0 0 0 0 0 0 
0 0 0 0 0 0 0 0 0 
0 0 0 0 0 0 0 0 0 
0 0 0 0 0 0 0 0 0 
0 0 0 0 0 0 0 0 0 
0 0 0 0 0 0 0 0 0 
0 0 5.80941e-12 0 1.45167e-12 0 0 6.59551e-13 0 
0 0 0 0 0 0 0 0 0 
0 0 0 0 0 0 0 0 0 
0 0 0 0 0 0 0 0 0 
0 0 0 2.73953e-12 0 0 0 0 0 
0 0 0 0 0 0 0 0 0 
0 0 2.99568e-12 0 0 0 0 0 0 
0 0 0 0 9.717e-12 0 0 0 0 
0 0 0 0 0 0 0 0 0 
0 0 0 0 0 0 0 0 0 
0 0 1.40611e-11 1.16286e-11 0 0 0 1.43933e-11 0 
0 0 0 0 0 0 0 0 0 
0 1.7127e-11 0 0 0 0 0 0 0 
0 0 9.10664e-12 0 0 0 0 0 0 
0 0 0 0 0 0 0 0 0 
0 0 0 0 0 0 0 1.364e-11 0 
0 0 0 0 0 0 0 0 0 
0 3.76839e-11 0 0 0 0 0 0 0 
1.34029e-11 0 0 0 0 0 0 0 0 
0 0 0 0 0 0 0 0 0 
4.61472e-12 0 0 0 0 0 1.71298e-12 1.23424e-11 0 
0 0 0 0 0 0 9.42159e-12 0 0 
0 0 0 0 0 0 0 0 0 
0 0 0 0 0 0 0 0 0 
0 6.58028e-13 0 0 0 0 0 0 0 
0 0 0 0 0 0 0 0 0 
0 0 0 0 0 0 0 0 0 
0 0 0 0 0 0 0 0 4.8898e-12 
0 0 0 1.72295e-11 0 0 0 0 0 
0 0 0 0 0 0 0 0 0 
0 0 0 0 0 0 0 0 0 
0 0 0 0 0 0 0 0 6.80142e-14 
0 0 0 0 0 0 0 0 0 
0 0 0 0 0 0 0 0 0 
0 0 0 0 0 0 0 0 0 
0 0 0 0 0 0 0 0 0 
0 0 0 0 0 0 0 0 0 
0 0 8.31116e-12 0 0 0 0 0 0 
0 0 0 0 0 0 0 0 0 
0 0 9.48572e-12 1.07679e-11 0 1.9498e-11 0 2.3271e-13 0 
4.19811e-11 0 4.47026e-11 0 0 0 0 0 0 
1.90014e-11 0 0 0 0 0 0 0 0 
0 3.1904e-11 0 0 0 0 0 0 0 
0 0 0 0 0 0 0 0 0 
0 0 0 0 0 0 0 0 0 
4.30001e-11 0 0 4.87051e-12 0 1.38189e-11 0 0 0 
0 0 0 0 0 0 6.06138e-12 0 0 
0 0 0 0 0 0 0 0 3.65793e-13 
2.84011e-11 0 0 0 0 0 0 0 0 
0 0 0 0 0 0 0 0 0 
0 0 0 1.11714e-12 0 0 1.02607e-11 0 0 
0 0 0 0 0 0 0 0 0 
0 0 0 0 0 0 0 0 0 
0 0 0 0 0 0 0 0 0 
0 0 0 0 0 0 0 0 0 
0 0 0 4.11998e-12 0 0 0 0 0 
0 0 0 0 0 0 0 0 0 
1.26408e-11 0 0 0 0 0 0 0 0 
0 0 0 0 0 0 0 0 0 
0 0 0 0 0 0 0 0 0 
0 0 0 0 0 0 0 0 0 
0 0 0 0 0 0 0 0 0 
0 0 0 0 0 0 0 0 0 
0 0 0 0 0 0 0 0 0 
0 0 0 0 0 0 9.02456e-12 0 0 
2.76024e-11 0 4.44729e-11 0 0 0 0 0 0 
0 0 0 0 0 0 0 0 0 
0 0 0 0 2.42461e-11 5.62332e-14 3.01296e-11 0 0 
2.43549e-11 2.42022e-11 0 0 0 3.76224e-11 0 0 0 
0 0 0 0 0 0 0 0 0 
0 0 0 2.59503e-11 7.22201e-11 0 0 2.6094e-11 0 
4.77734e-11 0 0 0 0 0 0 0 0 
0 4.14282e-11 0 0 0 0 0 0 0 
0 1.30157e-13 0 0 8.31298e-12 0 0 0 1.35853e-11 
0 0 0 0 0 0 0 0 0 
0 0 0 0 0 0 0 0 0 
0 0 0 5.50495e-11 2.34075e-11 0 0 0 0 
0 0 0 0 4.06546e-12 0 0 0 0 
0 9.99264e-12 0 0 0 0 0 0 0 
0 0 1.6861e-11 0 0 0 0 0 0 
0 0 0 0 0 0 0 0 0 
6.18313e-13 0 0 0 0 0 0 0 0 
0 0 0 0 0 0 0 0 0 
0 0 0 0 0 0 0 0 2.83222e-11 
0 0 0 0 0 0 0 0 0 
0 0 0 0 0 0 0 0 0 
0 0 0 0 0 0 0 1.50721e-12 0 
0 0 0 0 0 0 0 1.64882e-12 0 
0 0 0 0 0 0 0 0 0 
0 0 0 0 0 0 0 0 0 
0 0 0 0 0 0 0 0 0 
0 0 0 0 2.228e-12 0 0 0 0 
0 0 0 0 0 0 0 0 0 
3.42301e-11 0 0 0 5.88092e-11 0 0 0 0 
0 0 0 0 0 0 0 0 0 
0 0 1.39138e-11 2.27229e-11 0 0 0 0 0 
0 0 0 0 2.9142e-11 0 0 0 0 
0 0 0 0 0 0 0 0 7.82817e-12 
1.97551e-11 0 5.94556e-11 1.03589e-10 0 0 0 0 0 
0 0 0 0 0 0 0 0 0 
4.3916e-11 5.52734e-11 0 0 6.50088e-11 0 1.93362e-11 0 0 
4.20942e-11 0 0 0 0 0 0 0 0 
0 0 0 0 2.36279e-11 0 0 0 0 
0 4.60053e-12 0 0 0 0 0 0 0 
0 0 0 5.68424e-12 4.79662e-11 0 0 1.49641e-11 0 
5.54875e-12 0 0 1.61653e-11 0 0 0 0 0 
0 0 0 0 0 0 0 0 0 
0 3.78385e-12 7.3353e-12 0 0 0 0 0 0 
0 3.02838e-11 0 0 0 0 0 0 0 
0 0 0 0 0 0 1.39087e-13 1.24016e-12 0 
0 0 0 0 0 0 0 4.66034e-12 0 
0 8.91817e-12 0 0 0 0 0 0 0 
0 0 0 0 1.06394e-12 0 0 0 0 
0 0 1.60355e-13 0 0 0 0 0 0 
0 0 0 0 0 0 0 0 0 
0 0 0 0 0 0 0 0 0 
0 0 0 0 0 0 0 0 0 
0 0 0 0 0 0 1.32607e-12 0 0 
0 0 0 0 0 0 0 0 0 
0 0 0 0 0 8.35921e-12 0 0 0 
0 0 0 0 1.80413e-11 0 0 0 0 
0 0 4.76655e-11 0 0 0 0 4.90768e-11 0 
0 0 0 0 0 1.29108e-11 0 0 0 
0 0 0 0 9.22221e-11 0 2.06994e-10 0 0 
0 0 5.51324e-11 3.51144e-11 2.1966e-11 0 0 3.26981e-11 0 
0 0 0 0 0 6.55675e-12 0 0 6.99113e-11 
0 0 0 0 0 0 8.22542e-11 0 0 
0 0 0 0 7.42419e-11 0 0 5.56096e-11 0 
0 0 0 0 0 2.61955e-11 0 0 0 
3.90114e-11 0 0 0 0 0 2.09552e-11 0 0 
0 0 0 0 0 0 0 0 0 
0 0 0 0 8.4046e-11 0 1.37594e-10 0 0 
0 3.68125e-11 0 0 0 0 3.00161e-11 0 0 
6.78593e-11 0 4.74676e-11 0 0 2.34451e-11 0 0 0 
0 0 0 0 2.18447e-11 0 0 0 0 
0 0 2.78658e-11 3.05905e-11 0 0 0 0 0 
0 0 0 0 0 0 0 0 0 
0 0 0 0 0 0 0 1.73478e-13 0 
0 0 0 0 0 0 0 0 0 
0 0 2.03331e-11 5.31474e-12 0 0 0 3.41043e-11 0 
0 0 0 0 0 0 0 0 0 
0 0 0 0 0 0 0 0 0 
0 0 0 0 0 0 0 0 0 
0 0 0 0 0 0 0 0 0 
0 0 0 0 0 0 0 0 0 
0 0 0 0 0 0 0 0 0 
0 0 0 0 0 0 0 3.36466e-11 0 
0 0 0 0 1.03423e-11 7.5467e-12 0 0 0 
0 0 0 0 0 5.02069e-11 0 0 0 
0 2.55888e-10 0 0 6.52529e-11 0 0 0 0 
0 0 0 1.33744e-11 0 0 0 0 0 
0 0 0 2.06845e-10 2.42327e-08 0 0 0 4.60109e-11 
0 2.8153e-11 0 0 0 0 0 0 0 
0 0 0 0 2.56036e-10 0 0 7.66005e-13 3.95639e-11 
0 1.41826e-11 0 2.22345e-11 0 0 0 0 6.05543e-11 
0 3.79731e-14 1.84477e-12 0 0 2.30021e-13 0 0 0 
0 0 0 0 0 0 0 0 4.1788e-11 
0 0 0 0 1.251e-11 0 0 0 0 
0 0 4.68503e-11 0 0 0 0 0 0 
0 0 6.44475e-11 7.08144e-11 0 0 0 0 0 
1.3092e-10 1.54981e-11 0 0 0 9.15207e-11 5.45372e-11 0 0 
4.66468e-13 0 0 0 0 0 0 0 0 
0 1.79214e-11 0 0 0 0 0 0 0 
1.93027e-11 0 0 0 0 2.60099e-11 0 0 0 
8.85136e-14 0 0 1.76356e-12 0 0 0 0 0 
0 2.09386e-12 0 0 0 0 1.84838e-12 1.31478e-11 0 
0 0 1.55329e-11 0 2.27897e-12 0 0 0 0 
0 0 0 7.14038e-11 0 3.82614e-11 0 0 0 
0 0 0 0 0 0 0 0 0 
0 0 0 0 0 0 0 0 0 
0 0 0 0 0 0 0 0 0 
0 0 0 0 0 0 0 0 0 
0 0 0 0 0 0 0 0 0 
0 0 0 0 0 0 0 0 0 
0 0 0 0 2.06127e-11 7.61937e-12 0 0 6.18664e-11 
0 0 0 5.06999e-11 8.29972e-12 2.97818e-11 0 0 0 
0 0 0 0 0 0 0 0 0 
0 4.13009e-11 0 4.46853e-13 0 2.91393e-11 7.63767e-11 0 9.79038e-12 
0 1.20091e-11 0 0 1.07371e-11 2.25169e-11 4.94677e-11 0 0 
0 0 0 0 0 0 4.80301e-11 0 2.29064e-11 
1.33873e-12 0 0 0 0 0 0 2.61149e-11 6.3816e-11 
3.01841e-11 1.36123e-10 2.53326e-08 0 0 0 0 0 0 
2.00342e-11 0 0 0 2.63039e-08 0 0 1.27646e-10 0 
0 6.53156e-12 5.3088e-11 0 2.58801e-11 1.08262e-10 1.45039e-10 0 0 
0 0 0 4.86054e-11 3.08945e-11 1.18487e-11 0 0 0 
0 0 0 1.64766e-11 0 0 0 0 0 
6.17317e-12 0 1.20066e-10 5.64735e-11 0 0 0 0 0 
0 0 0 2.50866e-08 0 0 0 2.74717e-11 0 
8.01839e-11 0 0 1.83383e-10 5.51336e-11 0 0 7.04713e-11 8.57273e-11 
0 0 2.89754e-11 0 0 3.75065e-11 0 0 0 
0 4.20061e-11 0 0 2.29272e-11 0 0 0 0 
0 0 0 0 0 0 0 2.9678e-11 0 
0 0 0 0 0 0 0 0 0 
0 0 0 0 0 0 0 0 0 
0 0 0 0 0 0 0 0 5.50303e-12 
0 0 0 0 0 0 0 0 0 
0 0 1.67661e-11 0 0 0 0 0 0 
0 0 0 0 0 0 0 0 0 
0 0 0 0 0 0 0 0 0 
0 0 0 0 0 0 0 0 0 
0 0 0 0 0 0 0 0 0 
0 0 0 0 0 0 0 0 0 
1.36778e-11 0 0 0 0 8.63602e-11 8.50177e-11 0 0 
0 1.71049e-11 0 0 0 0 0 0 0 
0 0 0 0 0 8.50653e-12 0 0 0 
0 0 0 0 0 0 3.9868e-11 0 0 
0 0 0 0 1.5312e-11 0 7.37265e-11 8.95839e-11 0 
0 0 1.00015e-10 7.70855e-11 0 0 0 0 0 
0 0 0 0 1.55408e-12 4.64182e-11 0 0 0 
1.35998e-10 0 0 0 1.4432e-10 0 0 0 0 
2.88215e-11 0 1.77891e-10 0 0 0 0 0 5.85533e-11 
2.71806e-11 0 7.66719e-11 2.27016e-11 0 0 2.45443e-08 0 0 
3.57984e-11 0 0 0 0 1.40349e-11 2.49061e-11 0 0 
0 0 4.34924e-11 0 0 8.33195e-11 8.12402e-11 0 0 
1.06461e-10 7.70285e-11 3.23406e-11 0 0 0 0 0 1.36778e-10 
0 0 0 2.71276e-11 0 1.75221e-10 0 0 0 
1.1656e-10 0 0 0 5.39553e-11 6.71793e-11 0 6.26464e-12 0 
0 0 8.74206e-12 2.63558e-11 0 0 0 0 1.2848e-12 
0 0 0 0 0 3.10083e-11 0 8.99079e-11 0 
2.04149e-12 0 5.19928e-11 0 3.71876e-11 0 0 0 0 
0 0 0 0 0 0 0 0 0 
0 8.55961e-12 0 0 0 0 0 2.10801e-11 0 
0 0 1.41031e-11 9.14574e-11 1.81401e-11 0 0 0 0 
0 5.33528e-11 0 3.6179e-11 3.25699e-11 0 0 0 1.78855e-11 
0 2.35929e-11 0 0 0 0 0 4.14142e-12 0 
0 0 0 0 0 0 0 0 0 
0 0 0 0 0 0 0 0 0 
0 2.69679e-12 0 0 0 0 0 0 0 
0 0 0 0 0 0 0 0 0 
0 0 0 0 0 0 0 0 0 
0 0 0 5.66667e-11 0 0 0 0 0 
0 0 0 4.65014e-11 5.03545e-11 0 0 0 0 
0 2.61578e-08 0 2.43008e-10 0 0 9.23344e-12 0 0 
0 1.31218e-10 0 0 0 0 0 0 0 
2.97192e-11 0 0 0 0 2.45954e-11 6.72908e-11 0 0 
0 0 0 0 1.12992e-11 0 0 0 0 
0 0 0 0 0 0 4.76304e-11 0 0 
0 0 9.16785e-11 0 3.50023e-11 0 0 0 0 
0 0 0 0 0 0 4.89749e-11 8.38956e-12 0 
0 1.25547e-10 0 0 0 0 3.69665e-10 0 0 
0 0 0 0 0 0 0 1.69127e-11 0 
0 0 0 0 0 2.24413e-10 0 0 6.00183e-11 
0 0 0 4.1105e-11 4.96949e-11 2.84326e-11 0 0 0 
1.36701e-10 0 0 0 0 0 2.71585e-08 2.65129e-10 0 
0 0 1.27056e-10 0 0 9.73138e-11 0 0 0 
8.25711e-12 0 0 0 0 1.18264e-11 0 0 0 
0 5.27198e-11 1.26533e-10 0 0 0 0 3.97801e-11 6.15843e-11 
0 0 0 0 0 0 0 8.9821e-12 0 
0 0 0 0 3.86223e-12 0 0 0 0 
0 0 0 0 3.3285e-11 0 0 0 0 
0 0 7.2737e-11 0 0 0 0 0 0 
0 0 0 5.44945e-11 0 0 0 0 0 
0 0 5.51048e-12 0 0 7.2927e-12 0 0 0 
0 0 0 0 0 0 0 0 0 
0 0 0 0 0 0 0 0 0 
0 0 0 0 0 0 0 0 0 
0 0 0 0 0 0 0 0 0 
0 0 7.51551e-12 0 0 0 0 4.73795e-11 0 
1.76904e-12 6.83564e-11 0 0 2.46162e-08 0 3.47705e-11 0 0 
3.7225e-11 0 3.34703e-11 0 0 0 0 5.04254e-13 0 
3.65097e-10 0 0 0 0 1.54925e-11 1.46196e-10 0 0 
1.53233e-10 0 0 0 9.00465e-11 8.3169e-12 0 0 0 
4.15145e-12 0 4.54037e-11 1.38988e-11 0 0 3.33634e-11 0 0 
0 0 0 2.24076e-11 0 1.6634e-11 0 2.0236e-11 0 
0 0 0 0 0 2.472e-10 0 0 0 
0 3.20612e-11 6.70182e-11 1.0005e-10 0 0 1.62699e-10 0 0 
4.28837e-11 0 0 0 0 0 9.96458e-11 1.04583e-10 0 
1.42738e-10 0 1.63372e-10 0 0 0 0 6.11873e-11 0 
0 0 2.32803e-11 0 0 0 0 0 0 
4.48204e-11 0 0 2.43637e-08 1.63429e-10 0 1.10534e-10 0 0 
0 0 0 0 0 1.1253e-10 0 0 0 
0 8.84007e-12 0 0 0 1.85561e-10 0 0 2.00028e-10 
0 0 0 0 0 0 7.40673e-11 0 3.53105e-11 
0 0 0 0 0 0 0 0 1.2104e-10 
0 0 0 6.77811e-11 1.66102e-10 0 0 0 0 
0 0 0 0 0 0 0 8.71448e-12 0 
0 0 0 0 0 0 0 0 3.61312e-12 
0 0 0 0 0 0 1.27841e-10 0 8.85343e-11 
0 0 0 2.4823e-08 0 8.04369e-13 0 0 7.39965e-11 
0 0 3.76387e-11 0 2.02982e-11 0 8.41722e-12 0 0 
0 1.36902e-11 0 0 0 0 0 0 0 
2.52834e-12 0 0 0 0 0 0 0 0 
0 0 0 0 0 0 0 0 0 
0 0 0 0 0 0 0 0 0 
0 0 0 0 0 0 0 0 0 
0 0 0 0 0 0 0 0 2.37385e-12 
0 1.77136e-10 9.01945e-11 1.2483e-10 3.47669e-11 0 0 0 0 
0 0 0 0 0 0 0 0 0 
2.26274e-10 0 0 1.66031e-11 0 1.1783e-10 1.49542e-10 5.17888e-11 0 
0 0 0 0 0 0 0 0 0 
2.94152e-11 0 0 0 0 4.00223e-11 0 7.43351e-11 0 
0 0 0 0 1.81645e-11 0 0 2.03906e-11 0 
6.75138e-11 0 0 0 1.60336e-10 0 4.36286e-11 0 0 
2.95804e-10 0 0 3.08337e-10 0 0 0 0 0 
0 0 0 4.76013e-11 0 5.93493e-11 0 0 2.39895e-10 
0 0 0 0 4.69353e-11 8.93226e-13 0 0 0 
0 0 0 0 0 0 0 0 1.74785e-11 
0 0 0 0 9.44614e-11 0 0 4.76915e-11 0 
7.086e-11 0 0 3.73542e-11 0 0 0 0 1.07154e-10 
0 0 0 0 1.60709e-10 2.82659e-10 2.69536e-08 0 0 
0 4.8518e-12 0 0 0 6.54421e-11 0 0 0 
0 2.94286e-12 0 2.93048e-12 7.95146e-11 0 1.7445e-10 7.93779e-11 0 
0 0 0 0 0 5.2729e-11 0 0 0 
0 0 0 0 0 0 0 0 0 
0 0 0 0 0 0 1.11924e-11 0 0 
0 0 0 2.8942e-11 5.83302e-11 0 0 2.23826e-11 3.63412e-11 
0 0 0 0 0 1.09064e-11 0 6.83596e-11 4.543e-11 
0 0 0 0 0 7.62306e-12 0 0 0 
0 1.40941e-11 0 0 0 0 0 0 0 
0 0 0 0 0 0 0 0 0 
0 0 0 0 0 0 0 0 0 
0 0 0 0 0 0 0 0 0 
0 0 0 0 0 0 0 0 0 
0 0 0 2.31472e-13 0 0 5.98556e-11 2.32127e-11 0 
1.13188e-10 2.19323e-11 3.23547e-11 0 0 0 0 0 2.00653e-10 
0 0 2.63198e-11 0 0 2.79257e-10 0 0 2.23227e-10 
0 0 0 0 2.66455e-08 0 0 4.4273e-11 0 
3.99456e-11 0 0 0 3.10405e-11 0 0 4.25468e-12 0 
0 0 0 0 0 0 0 0 0 
0 0 4.91475e-12 0 0 5.88101e-11 7.35294e-11 2.6732e-11 0 
0 0 0 0 0 0 0 0 0 
0 0 0 0 0 0 0 0 1.26214e-10 
0 1.66529e-11 1.88967e-10 1.0781e-10 7.60262e-12 0 1.77251e-11 0 0 
0 0 0 0 0 1.47659e-11 0 0 1.16538e-12 
0 0 0 1.00444e-10 0 0 0 0 3.22322e-11 
3.35454e-11 0 1.52145e-10 0 0 3.17739e-12 0 0 0 
0 8.3879e-11 0 0 0 0 0 1.28324e-10 0 
0 0 0 2.37813e-10 0 0 0 0 0 
0 0 0 0 0 5.60383e-11 0 0 0 
0 0 0 3.25518e-11 0 0 0 0 0 
0 0 0 5.15963e-11 5.98259e-11 1.02703e-10 8.87822e-11 0 0 
0 0 0 0 0 0 0 0 0 
0 0 0 3.70803e-11 0 0 0 0 0 
0 0 0 3.01461e-11 0 1.35611e-10 5.8432e-11 0 1.955e-12 
0 1.94768e-10 0 0 0 0 0 0 4.86416e-14 
0 0 0 0 3.9423e-11 0 0 0 0 
0 0 0 0 0 0 0 0 0 
0 0 0 0 0 0 0 0 0 
0 0 0 0 0 0 0 0 0 
0 0 0 0 0 0 0 0 0 
0 0 0 0 0 0 0 0 0 
0 0 5.65867e-11 0 0 5.03453e-11 0 2.90807e-11 1.30376e-11 
0 0 0 0 0 0 0 0 0 
0 1.4642e-10 0 0 0 0 0 0 0 
0 7.06685e-11 2.66045e-10 0 0 1.00656e-10 0 0 0 
4.17005e-11 0 0 1.18414e-11 0 0 1.76082e-12 0 1.53935e-11 
0 0 0 0 0 0 3.65928e-11 0 0 
0 0 0 7.25029e-11 6.78537e-11 0 0 0 0 
1.73862e-10 0 0 3.00771e-08 0 0 0 3.45533e-08 0 
0 0 0 1.61838e-10 0 1.0695e-10 0 7.39456e-11 1.83698e-10 
1.91444e-11 2.47005e-11 7.82487e-11 0 0 0 0 6.86739e-11 0 
5.48491e-11 0 0 0 0 0 9.52256e-12 0 0 
0 0 0 0 0 0 0 0 0 
2.2349e-11 0 0 0 0 0 0 0 1.81041e-13 
0 0 0 1.58591e-11 0 0 0 6.29611e-11 0 
8.0025e-11 0 0 0 0 0 0 8.64533e-11 3.83982e-11 
0 0 0 0 0 0 1.59383e-10 0 0 
0 0 0 0 0 0 0 0 1.31757e-12 
0 0 0 0 0 7.46938e-11 6.68115e-11 4.62786e-12 0 
0 0 0 0 0 0 0 0 0 
0 4.58211e-11 0 5.85413e-11 0 0 0 0 0 
0 0 9.71901e-11 0 0 0 0 0 0 
0 0 5.18685e-11 6.88864e-11 2.71252e-11 1.04433e-10 0 5.91861e-11 1.46003e-10 
0 0 0 0 0 0 0 0 0 
0 0 0 0 0 0 0 0 0 
0 0 0 0 0 0 0 0 0 
0 0 0 0 0 0 0 0 0 
0 0 0 0 0 0 0 0 0 
0 0 0 0 0 0 0 0 0 
0 4.47189e-11 0 9.0015e-11 0 6.35796e-11 0 0 0 
0 0 0 1.1801e-10 4.41207e-11 4.45288e-11 2.36657e-11 1.01893e-10 0 
0 0 5.62535e-13 0 0 0 0 0 0 
0 0 0 0 0 7.63016e-12 0 0 0 
0 0 0 0 0 0 1.07553e-10 0 0 
0 0 7.97185e-11 0 0 0 1.1808e-11 0 0 
0 0 0 0 0 8.08934e-11 0 1.84284e-10 0 
0 0 2.56835e-10 0 0 0 0 0 0 
0 0 7.15138e-13 0 2.6146e-08 0 0 0 0 
0 0 0 0 0 0 0 0 0 
0 0 0 0 0 0 0 0 1.13917e-11 
0 0 0 0 1.96098e-11 0 0 0 6.1797e-11 
0 3.76241e-12 0 0 1.45713e-10 0 0 0 0 
5.69599e-11 0 0 0 0 0 1.179e-10 0 8.22763e-11 
6.26287e-11 9.84695e-11 0 0 0 0 1.24219e-10 0 0 
1.10635e-10 2.48425e-08 0 0 0 0 4.48909e-11 0 0 
0 1.93112e-10 0 0 0 0 2.81874e-08 0 0 
7.40506e-11 0 0 0 0 0 0 0 0 
0 0 0 0 0 0 0 0 0 
0 4.84208e-11 0 0 0 1.01596e-10 5.69068e-11 0 0 
1.08153e-11 0 0 0 0 0 0 0 0 
0 0 0 0 0 0 0 0 7.37498e-11 
4.13962e-11 0 0 0 0 0 0 0 0 
0 0 0 0 0 0 0 0 0 
0 0 0 0 0 0 0 0 0 
0 0 0 0 0 0 0 0 0 
0 0 0 0 0 0 0 0 0 
0 0 0 0 0 0 2.94347e-11 0 0 
0 6.18808e-11 0 0 0 0 0 9.92192e-11 0 
4.04565e-10 0 0 0 3.48486e-11 8.20332e-11 0 0 0 
0 3.83164e-08 3.85187e-08 0 0 0 3.52649e-11 0 0 
0 0 7.32194e-11 1.02243e-11 0 0 0 0 0 
0 0 0 0 0 4.76553e-11 0 0 0 
0 0 2.88188e-11 0 0 0 0 0 0 
0 1.50609e-11 0 0 2.27228e-12 0 0 0 0 
0 0 0 0 3.31154e-08 0 0 2.20119e-10 0 
2.71262e-10 0 2.7703e-10 0 0 8.5725e-12 0 0 1.20257e-11 
0 0 0 0 0 5.14343e-11 1.30156e-12 0 0 
0 0 0 0 0 0 0 0 0 
0 8.47943e-11 0 0 0 0 0 0 0 
0 4.38434e-12 0 0 0 0 0 0 0 
0 0 0 1.15677e-10 0 0 0 1.62143e-10 0 
0 1.03171e-11 0 0 0 0 0 0 0 
0 7.38002e-11 4.11157e-12 0 1.02559e-10 5.90204e-11 0 2.23207e-10 0 
0 0 0 0 1.03243e-10 0 0 0 2.13151e-11 
0 0 0 0 0 0 0 0 0 
0 0 0 0 9.2795e-12 2.57473e-11 0 0 1.89315e-11 
0 0 0 0 2.65044e-10 0 0 1.44438e-10 0 
4.80674e-11 1.26548e-10 0 0 0 1.1134e-10 2.35557e-10 0 0 
0 0 0 0 0 0 0 0 1.13822e-11 
0 0 0 0 1.41663e-11 6.18065e-12 0 0 0 
0 0 0 0 0 0 0 0 0 
0 0 0 0 0 0 0 0 0 
0 0 0 0 0 0 0 0 0 
0 0 0 0 0 0 0 0 0 
0 0 0 0 1.78028e-11 0 0 0 0 
0 0 6.48887e-11 0 0 0 0 0 0 
0 8.53354e-12 0 0 5.01916e-11 0 8.89175e-11 0 0 
0 0 2.38351e-10 2.43442e-10 0 8.84412e-11 1.1161e-10 0 0 
0 0 3.10946e-11 0 0 0 0 0 0 
4.93577e-14 0 0 9.00849e-11 0 1.17427e-10 0 0 0 
0 0 0 1.16645e-13 0 0 0 0 0 
0 0 0 0 0 0 1.12963e-11 0 2.16963e-11 
0 4.96456e-10 0 0 0 6.33694e-11 0 2.15168e-11 0 
5.2956e-11 0 0 0 0 0 7.708e-11 0 0 
2.97533e-13 9.3334e-11 0 0 5.05247e-11 0 0 4.54659e-11 0 
0 0 0 0 0 2.86366e-11 0 0 0 
0 0 0 0 2.11841e-12 0 0 0 0 
0 0 0 0 0 0 0 0 0 
0 4.19905e-11 5.18068e-11 0 0 0 0 0 0 
3.97729e-11 0 0 8.56572e-11 0 0 0 0 0 
0 0 0 0 0 2.49736e-11 0 0 0 
5.71558e-11 0 0 2.24145e-10 0 0 0 3.923e-11 0 
2.62889e-12 0 0 0 0 0 0 0 0 
0 0 0 0 0 0 0 0 0 
1.986e-10 1.74123e-10 2.66747e-08 0 0 1.99212e-10 0 0 1.85117e-12 
0 0 5.43581e-11 0 0 2.55163e-11 0 0 0 
0 0 0 2.31476e-11 0 0 0 0 0 
0 4.51471e-13 0 0 0 0 0 0 0 
0 0 0 0 0 0 0 0 0 
0 1.53448e-12 0 0 0 0 0 0 0 
0 0 0 0 0 0 0 0 0 
0 0 0 0 0 0 0 0 0 
0 0 0 0 0 0 0 5.73399e-11 0 
0 2.43717e-11 0 0 0 2.66714e-08 0 4.01461e-10 1.11177e-10 
0 0 0 0 2.89173e-10 3.04368e-10 0 0 0 
5.61187e-11 2.02564e-10 0 0 1.22288e-10 0 0 0 0 
0 0 0 0 0 0 0 0 0 
0 0 0 3.57205e-11 1.06413e-10 1.03645e-10 0 3.09049e-10 0 
0 1.84621e-11 0 0 0 0 5.86895e-11 0 0 
9.35597e-13 0 0 1.125e-10 2.30073e-11 0 3.77924e-11 0 0 
0 0 4.4318e-11 0 1.00248e-10 5.79988e-12 1.19474e-11 0 0 
9.22387e-11 0 9.87014e-12 1.5557e-11 0 0 0 6.04625e-11 0 
0 0 0 0 0 0 0 0 0 
0 0 0 0 2.89011e-11 0 3.80406e-11 0 0 
0 0 0 0 0 0 0 0 0 
0 0 0 0 0 0 4.42874e-11 0 0 
0 0 1.25549e-10 0 0 0 0 2.30386e-12 0 
0 0 3.60343e-13 0 0 5.7623e-11 0 0 1.34498e-11 
0 0 0 0 0 0 0 0 1.97549e-10 
2.86646e-10 0 0 0 1.02202e-10 0 0 2.19614e-11 0 
1.87111e-11 0 0 0 0 0 0 0 0 
0 0 0 0 0 0 0 0 5.02078e-13 
1.14614e-10 8.85895e-11 6.97171e-11 0 0 0 0 0 0 
0 0 0 2.84334e-11 5.39077e-11 1.1307e-10 0 3.09419e-08 0 
0 0 0 0 0 0 0 0 0 
0 0 0 0 0 0 0 0 0 
0 0 0 0 0 3.48189e-12 0 0 0 
0 0 0 0 0 0 0 0 0 
0 0 0 0 0 0 0 0 0 
0 0 0 0 0 0 0 0 0 
0 0 0 0 0 0 0 2.46664e-10 3.8788e-11 
0 0 0 0 2.92386e-10 1.61635e-10 0 8.66353e-12 1.01826e-10 
0 4.0265e-11 0 2.01076e-10 0 0 0 0 0 
3.47589e-11 0 0 0 0 0 0 0 0 
0 0 0 0 0 0 0 1.33341e-10 0 
0 1.33501e-10 0 0 0 0 6.49152e-11 0 3.46783e-11 
9.09989e-12 0 0 6.11917e-11 1.21087e-11 3.83307e-11 0 0 0 
0 1.04595e-11 0 0 0 5.46918e-11 2.20383e-10 3.24647e-11 0 
0 0 0 2.39436e-11 0 0 0 2.49959e-11 0 
0 0 0 0 0 0 0 0 0 
0 5.6956e-11 1.37999e-10 0 0 0 1.79806e-13 0 1.72127e-11 