# vtk DataFile Version 5.1
vtk output
ASCII
DATASET STRUCTURED_POINTS
DIMENSIONS 250 250 1
SPACING 1 1 1
ORIGIN 0 0 0
POINT_DATA 62500
FIELD FieldData 6
feature_1 1 62500 float
0 0 0 0 0 0 0 0 0 
0 0 0 0 0 0 0 0 0 
0 0 0 0 0 0 0 0 0 
0 0 0 0 0 0 0 0 0 
0 0 0 0 0 0 0 0 0 
0 0 0 0 0 0 0 0 0 
0 0 0 0 0 0 0 0 0 
0 0 0 0 0 0 0 0 0 
0 0 0 0 0 0 0 0 0 
0 0 0 0 0 0 0 0 0 
0 0 0 0 0 0 0 0 0 
0 0 0 0 0 0 0 0 0 
0 0 4.22628e-13 0 0 0 1.10726e-12 0 0 
0 0 0 0 0 0 0 0 0 
0 0 0 0 0 0 0 0 0 
0 0 0 0 0 0 0 0 0 
0 0 0 0 0 0 0 0 0 
0 0 0 0 0 0 0 0 0 
0 0 0 0 4.50561e-13 0 0 0 0 
0 0 0 0 0 0 0 0 0 
0 0 0 0 0 0 0 0 0 
0 0 0 0 0 0 0 0 0 
0 0 1.06099e-13 0 0 0 0 0 0 
0 0 0 0 0 0 0 0 0 
0 0 0 0 0 0 0 0 0 
0 0 0 0 0 0 0 0 0 
0 0 0 0 0 0 0 0 0 
0 0 0 0 0 0 0 0 0 
0 0 0 0 0 0 0 0 0 
0 0 0 0 0 0 0 0 0 
0 0 0 0 0 0 0 0 0 
0 0 0 0 0 0 0 3.13875e-13 0 
0 0 0 0 0 0 0 0 0 
0 0 0 0 0 0 0 0 0 
0 0 0 0 0 0 0 0 0 
0 0 0 0 0 0 0 0 0 
0 0 0 0 0 0 0 0 0 
0 0 0 0 0 0 0 0 0 
0 0 0 0 0 0 0 0 0 
0 0 0 0 0 0 0 0 0 
0 2.06075e-12 0 0 0 0 0 0 0 
0 0 0 0 0 0 0 0 0 
0 0 0 0 0 0 0 0 0 
0 0 0 0 0 0 0 0 0 
0 0 0 7.10605e-13 0 0 0 0 0 
0 0 0 0 0 0 0 0 0 
0 0 0 0 0 0 0 0 0 
0 0 0 0 0 0 0 0 0 
0 0 0 0 0 0 0 0 0 
0 0 0 0 0 0 0 0 0 
0 0 0 0 0 0 0 0 0 
0 0 0 0 0 0 0 0 0 
0 0 0 0 0 0 0 0 0 
0 0 0 0 0 0 0 0 0 
0 0 0 0 0 0 0 0 0 
0 0 0 0 0 0 0 0 0 
0 0 0 0 0 0 0 0 0 
0 0 0 0 0 0 0 0 0 
0 0 0 0 0 0 0 0 0 
0 0 0 0 0 0 0 0 0 
0 0 0 0 0 0 0 0 0 
0 0 0 0 0 0 0 0 0 
0 0 0 0 0 0 0 0 0 
0 0 0 0 0 0 0 0 0 
0 0 0 0 0 0 0 0 0 
1.42436e-12 0 0 0 0 0 0 0 0 
0 0 0 0 0 0 0 0 0 
0 0 0 0 0 0 0 0 0 
0 0 0 0 0 0 0 0 0 
0 0 0 0 0 0 0 0 0 
0 0 0 0 0 0 0 0 0 
0 1.59654e-13 0 0 0 0 0 0 0 
0 0 0 0 0 0 0 0 0 
0 0 0 4.76723e-13 0 0 0 0 0 
0 0 0 9.50792e-13 0 0 0 0 0 
0 0 0 3.6448e-13 0 0 0 0 0 
0 0 0 0 0 0 0 0 0 
0 0 0 0 0 0 0 0 0 
0 0 0 0 0 0 0 0 0 
0 0 0 0 0 0 0 0 0 
0 0 0 0 0 0 0 0 0 
0 0 0 0 0 0 0 0 0 
0 0 0 0 0 0 0 0 0 
0 0 0 0 0 0 0 0 0 
0 0 0 0 0 0 0 0 0 
0 0 0 0 0 0 0 0 0 
0 0 0 0 0 0 0 0 0 
0 0 0 0 0 0 0 0 0 
0 0 0 0 0 0 0 0 0 
0 0 0 0 0 0 0 0 0 
0 0 0 0 0 0 0 0 0 
0 0 0 0 0 0 0 0 0 
0 0 0 5.64556e-13 0 0 0 0 0 
0 0 0 0 0 0 0 0 0 
0 0 0 0 0 0 0 0 0 
0 0 0 0 0 0 0 0 0 
0 0 0 0 0 0 0 0 0 
0 0 0 0 0 0 0 0 0 
0 0 0 0 0 0 0 0 0 
0 0 0 0 0 0 0 0 0 
0 0 0 0 0 0 0 0 0 
0 0 0 0 0 0 0 0 0 
0 0 0 0 0 0 0 0 0 
0 0 0 0 0 0 0 0 0 
0 0 0 0 0 0 0 1.43148e-13 0 
0 0 0 0 0 0 0 0 0 
0 0 0 0 0 0 0 0 0 
0 0 0 0 0 0 0 0 0 
0 0 0 0 0 0 0 0 0 
0 0 0 0 0 0 0 0 0 
0 0 0 0 0 0 0 0 0 
0 0 0 0 0 0 0 0 0 
0 0 0 0 0 0 0 0 0 
0 0 0 0 0 0 0 0 0 
0 0 0 0 0 0 0 0 0 
0 0 0 0 0 0 0 0 0 
0 0 0 0 0 0 0 0 0 
0 0 0 0 0 1.45832e-12 0 0 0 
0 0 0 0 0 0 0 0 0 
0 0 0 0 0 0 0 0 0 
0 0 0 0 0 0 0 0 0 
0 0 0 0 0 0 0 0 0 
0 0 0 0 1.52993e-12 0 0 0 0 
0 0 0 2.03634e-13 0 0 0 0 0 
0 0 0 0 0 0 0 0 0 
0 0 0 0 0 0 0 0 0 
0 0 0 0 0 0 0 0 0 
0 0 0 0 0 0 0 0 0 
0 0 0 0 0 0 0 1.97086e-12 0 
0 0 0 0 0 0 0 0 0 
0 0 0 0 0 0 0 0 0 
0 0 0 0 0 0 0 0 0 
0 0 0 0 0 0 0 0 0 
0 0 0 0 0 0 0 0 0 
0 0 0 0 0 0 0 0 0 
0 0 0 0 0 0 1.10265e-12 0 0 
0 0 0 0 0 0 0 0 0 
0 0 0 0 0 0 0 0 0 
0 0 0 0 0 0 0 0 0 
0 0 0 0 0 0 0 0 0 
0 0 0 0 0 0 0 0 0 
0 0 0 0 0 0 0 0 0 
0 0 0 0 0 0 0 0 0 
0 0 0 0 0 0 0 0 0 
0 0 0 0 0 0 0 0 0 
0 0 0 0 0 0 0 0 0 
0 0 0 0 0 0 0 0 0 
0 0 0 0 0 0 0 0 0 
0 0 0 0 0 0 0 0 0 
0 0 0 0 0 0 0 0 0 
0 0 0 0 0 0 0 0 0 
0 0 0 0 0 0 0 0 0 
0 0 0 0 0 0 0 0 0 
0 0 1.22641e-12 0 0 0 0 0 0 
0 0 0 0 0 0 0 0 0 
0 0 0 0 0 0 0 0 0 
0 0 0 0 0 0 0 0 0 
0 0 0 0 0 1.72179e-12 0 0 0 
0 0 0 0 0 0 0 0 0 
0 0 0 0 0 0 0 0 0 
0 0 0 0 0 0 0 0 0 
0 0 0 0 0 0 0 0 0 
0 0 0 0 0 0 0 0 0 
0 0 0 0 0 0 0 0 0 
0 0 0 0 0 0 0 0 0 
0 0 0 0 0 0 0 0 0 
0 0 0 0 0 0 0 0 0 
0 0 0 0 0 0 0 0 0 
0 0 0 0 0 0 0 0 0 
0 0 0 0 0 0 0 0 0 
0 0 0 0 5.28998e-13 0 0 0 0 
0 0 0 0 0 0 0 0 0 
0 0 0 0 0 0 0 0 0 
0 0 0 0 0 0 0 0 0 
0 0 0 0 0 0 0 0 0 
0 0 0 0 0 0 0 0 0 
0 0 0 0 0 0 0 0 0 
0 0 0 0 0 0 0 0 0 
0 0 0 0 0 0 0 0 0 
0 0 0 0 0 0 0 0 0 
0 0 0 0 0 0 0 0 0 
0 0 0 0 0 0 0 0 0 
0 0 0 0 0 0 0 0 0 
0 0 0 0 0 0 0 0 0 
0 0 0 0 0 0 0 0 0 
0 0 0 0 0 0 0 0 0 
0 0 0 0 0 0 0 0 0 
0 0 0 0 0 0 0 0 0 
0 0 0 0 0 0 0 0 0 
0 0 0 0 0 0 0 0 0 
0 0 0 0 0 0 0 0 0 
0 0 0 0 0 0 0 0 0 
0 0 0 0 0 0 0 0 0 
0 0 0 0 0 0 3.52613e-13 0 0 
0 0 0 0 0 0 0 0 0 
0 0 0 0 0 0 0 0 0 
0 0 0 0 0 0 0 0 0 
0 0 0 0 0 0 0 0 0 
0 0 0 0 0 0 0 0 0 
0 0 0 0 0 0 0 0 0 
0 0 0 0 0 0 0 0 0 
0 0 0 0 0 0 0 0 0 
0 0 0 0 0 0 0 0 0 
0 0 0 0 0 0 0 0 0 
0 0 0 0 0 0 0 0 0 
0 0 0 0 0 0 0 0 0 
0 0 0 0 0 0 0 0 0 
0 0 0 0 0 0 0 0 0 
0 0 0 0 0 0 0 0 0 
0 0 0 0 0 0 0 0 0 
0 0 0 0 0 0 0 0 0 
0 0 0 0 0 0 0 0 0 
0 0 0 0 0 0 0 0 0 
0 0 0 0 0 0 0 0 0 
0 0 0 0 0 0 0 0 0 
0 0 0 0 0 0 0 0 0 
0 2.42598e-13 0 0 0 0 0 0 0 
0 0 0 0 0 0 0 0 0 
0 0 0 0 0 0 0 0 0 
0 0 0 0 0 0 0 0 0 
0 0 0 0 0 0 0 0 0 
0 0 0 0 0 0 0 0 0 
0 0 0 0 0 0 0 0 0 
0 0 0 0 0 0 0 0 0 
0 0 0 0 0 0 0 0 0 
0 0 0 0 0 0 0 0 0 
0 0 0 0 0 0 0 8.47161e-13 0 
0 0 0 0 0 0 0 0 0 
0 0 0 0 0 0 0 0 0 
0 0 0 0 0 0 0 0 0 
0 0 0 0 0 0 0 0 0 
0 0 0 0 0 0 3.60315e-12 0 0 
0 0 0 0 0 0 0 0 0 
0 0 0 0 0 0 0 0 0 
0 0 0 0 0 0 0 0 0 
0 0 0 0 0 0 0 0 0 
0 0 0 0 0 0 0 0 0 
0 0 0 0 0 0 0 0 0 
0 0 0 0 0 0 0 0 0 
0 0 0 0 0 0 0 0 0 
0 0 0 0 0 0 0 0 0 
0 0 1.72571e-12 0 6.07105e-13 0 0 0 0 
0 0 0 0 0 0 0 0 9.74662e-13 
0 0 0 0 0 0 0 0 0 
0 0 0 0 0 0 0 0 0 
0 0 0 0 0 0 0 0 0 
0 0 0 0 0 0 0 0 0 
0 0 0 0 0 0 0 0 0 
0 0 0 0 0 0 0 0 0 
0 0 0 0 0 0 0 0 0 
0 0 0 0 0 0 0 0 0 
0 0 0 0 0 0 0 0 0 
0 0 0 0 0 0 0 0 0 
0 0 0 0 0 0 0 0 0 
0 0 0 0 0 0 0 0 0 
0 0 0 0 0 0 0 0 0 
0 0 0 0 0 0 0 0 0 
0 0 8.88012e-13 0 0 0 0 0 0 
0 0 0 0 0 0 0 0 0 
0 0 0 0 0 0 0 0 0 
0 0 0 0 0 0 0 0 0 
0 0 0 0 0 0 0 0 0 
0 0 0 0 0 0 0 0 0 
0 0 0 0 0 0 0 0 0 
0 0 0 0 0 0 0 0 0 
0 0 0 0 0 0 0 0 0 
0 0 0 0 0 0 0 0 0 
0 0 0 0 0 0 0 0 0 
0 0 0 0 0 0 0 0 0 
0 0 0 0 0 0 0 0 0 
0 0 0 0 0 0 0 0 0 
0 0 0 0 0 0 0 0 0 
0 0 0 0 0 0 0 0 0 
0 0 0 0 0 0 0 0 0 
0 0 0 0 0 0 0 0 0 
2.43666e-13 0 0 0 0 0 0 0 0 
0 0 0 0 0 0 0 0 0 
0 0 0 0 0 0 0 0 0 
0 0 0 0 0 0 0 0 0 
0 0 0 0 0 0 0 0 0 
0 0 0 0 0 0 0 0 0 
0 0 0 0 4.61338e-13 0 0 0 0 
0 0 0 0 0 0 0 0 0 
0 0 0 0 0 0 0 0 0 
0 0 0 0 0 0 0 0 0 
0 0 0 0 0 0 0 0 0 
0 0 0 0 0 0 0 0 0 
0 0 0 0 0 0 0 0 0 
0 0 0 0 0 0 0 0 0 
0 0 0 0 0 0 0 0 0 
0 0 0 0 0 0 0 0 0 
0 0 0 0 0 0 0 0 0 
0 0 0 0 0 0 0 0 0 
0 0 0 0 0 0 0 0 0 
0 0 0 0 0 5.47196e-13 0 0 0 
0 0 0 0 0 0 0 0 0 
0 0 0 0 0 0 0 0 0 
0 0 0 0 0 0 0 0 0 
0 0 0 0 0 0 0 0 0 
1.7027e-13 0 0 0 0 0 0 0 0 
0 0 0 0 0 0 0 0 0 
0 0 0 0 0 0 0 0 0 
0 0 0 0 0 0 0 0 0 
0 0 0 0 0 0 0 0 0 
0 0 0 1.20264e-12 0 0 0 0 0 
0 0 0 0 0 0 0 0 0 
0 0 0 0 0 0 0 0 0 
0 0 0 0 0 0 0 0 0 
0 0 0 0 0 0 0 0 0 
0 0 0 0 0 0 0 0 0 
0 0 0 0 0 0 0 0 0 
0 0 0 0 0 0 0 0 0 
0 0 0 0 0 0 0 0 0 
0 0 0 0 0 0 0 0 0 
0 0 0 0 0 0 0 0 0 
0 0 0 0 0 0 0 0 0 
0 0 0 0 0 0 0 0 0 
0 0 0 0 0 0 0 0 0 
0 0 0 0 0 0 0 0 0 
0 0 0 0 0 0 0 0 0 
0 0 0 0 0 0 0 0 0 
0 0 0 0 0 0 0 0 0 
0 0 0 0 0 0 0 0 0 
0 0 0 0 0 0 0 0 0 
0 0 0 0 0 0 0 0 0 
0 0 0 0 0 0 0 0 0 
0 0 0 0 0 0 0 0 0 
0 0 0 0 0 0 0 0 0 
0 0 0 0 0 0 0 0 0 
0 0 0 0 0 0 0 0 0 
0 0 0 0 0 0 0 0 0 
0 0 0 0 0 0 0 0 0 
0 0 0 0 0 0 0 0 0 
0 0 0 0 0 0 0 0 0 
0 0 0 0 0 0 0 0 0 
0 0 0 0 0 0 0 0 0 
0 0 0 0 0 0 0 0 0 
0 0 0 0 0 0 0 0 0 
0 0 0 0 0 0 0 0 0 
0 0 0 0 0 0 0 0 0 
0 0 0 0 0 0 0 0 0 
0 0 0 0 0 0 0 0 0 
0 0 0 0 0 0 0 0 0 
0 0 0 0 0 0 0 0 0 
0 0 0 0 0 0 0 0 0 
0 0 0 0 0 0 0 0 0 
0 0 0 0 0 0 0 0 0 
0 0 0 0 0 0 0 0 0 
0 0 0 0 0 0 0 0 0 
0 0 0 0 0 0 0 0 0 
0 0 0 0 0 0 0 0 0 
0 0 0 0 0 0 0 0 0 
0 0 0 0 0 0 0 0 0 
0 0 0 0 0 0 0 0 0 
0 0 0 0 0 0 0 0 0 
0 0 0 0 0 0 0 0 0 
0 0 0 0 0 0 0 0 0 
0 0 0 0 0 0 0 0 0 
0 0 0 0 0 0 0 0 0 
0 0 0 0 0 0 0 0 0 
0 0 0 0 0 0 0 0 0 
0 0 0 0 0 0 0 0 0 
0 0 0 0 2.53766e-13 0 0 0 0 
0 0 0 0 0 0 0 0 0 
0 0 0 0 0 0 0 0 0 
0 0 0 0 1.83673e-13 0 0 0 0 
0 0 0 0 0 0 0 0 0 
0 0 0 0 0 0 0 0 0 
0 0 0 0 0 0 0 0 0 
0 0 0 0 0 0 0 0 0 
0 0 0 0 0 0 0 0 0 
0 0 0 0 0 0 0 0 0 
0 0 0 0 0 0 0 0 0 
0 0 0 0 0 0 0 0 0 
0 0 0 0 0 0 0 0 0 
0 0 0 0 0 0 0 0 0 
0 0 0 0 0 0 0 0 0 
0 0 0 0 0 0 0 0 0 
0 0 0 0 0 0 0 0 0 
0 0 0 0 0 0 0 0 0 
0 0 0 0 0 0 0 0 0 
0 0 0 0 0 0 0 0 0 
0 0 0 0 0 0 0 0 0 
0 0 0 0 0 0 0 0 0 
0 0 0 0 0 0 0 0 0 
0 0 0 0 0 0 0 0 0 
0 0 0 0 0 0 0 0 0 
0 0 0 0 0 0 0 0 0 
0 0 0 0 0 0 0 0 0 
0 0 0 0 0 0 0 0 0 
0 0 0 0 0 0 0 0 0 
0 0 0 0 0 0 0 0 0 
0 0 0 0 0 0 0 0 0 
0 0 0 0 0 0 0 0 0 
0 0 0 0 0 0 0 0 0 
0 0 0 0 0 0 0 0 0 
0 0 0 0 0 0 0 0 0 
0 0 0 0 0 0 0 0 0 
0 0 0 0 0 0 0 0 0 
0 0 0 0 0 0 0 0 0 
0 2.15277e-12 0 0 0 0 0 0 0 
0 0 0 0 0 0 0 0 0 
0 0 0 0 0 0 0 0 0 
0 0 0 0 0 0 0 0 0 
0 0 0 0 0 0 0 0 0 
0 0 0 0 0 0 0 0 0 
0 0 0 0 0 0 0 0 0 
0 0 0 0 0 0 0 0 0 
0 0 0 0 0 0 0 0 0 
0 0 0 0 0 0 0 0 0 
0 0 0 0 0 0 0 0 0 
0 0 0 0 0 0 0 0 0 
0 0 0 0 0 0 0 0 0 
0 0 0 0 0 0 0 0 0 
0 0 0 0 0 0 0 0 0 
0 0 0 0 0 0 0 0 0 
0 0 0 0 0 0 0 0 0 
0 0 0 0 0 0 0 0 0 
0 0 0 0 0 0 0 0 0 
0 0 0 0 0 0 0 0 0 
0 0 0 0 0 0 0 0 0 
0 0 0 0 0 0 0 0 0 
0 0 0 0 0 0 0 0 0 
0 0 0 0 0 0 0 0 0 
0 0 0 0 0 0 0 0 0 
0 0 0 0 0 0 0 0 0 
0 0 0 0 0 0 0 0 3.23083e-12 
0 0 0 0 0 0 0 0 0 
3.91022e-12 0 0 0 0 0 0 0 0 
0 0 0 0 0 0 0 0 0 
0 0 0 0 0 0 0 0 0 
0 0 0 0 0 0 0 0 0 
0 0 0 0 0 0 0 0 0 
0 0 0 0 0 0 0 0 0 
0 0 0 0 0 0 0 0 0 
0 0 0 0 0 0 0 0 0 
0 0 0 0 0 0 0 0 0 
0 0 0 0 0 0 0 0 0 
0 0 0 0 0 0 0 0 0 
0 0 0 0 0 0 0 0 0 
0 0 0 0 0 0 0 0 0 
0 0 5.73326e-14 0 0 0 0 0 0 
0 0 0 0 0 0 0 0 0 
0 0 0 0 0 0 0 0 0 
0 0 0 0 0 0 0 0 0 
0 0 0 0 0 0 0 0 0 
0 0 0 0 0 0 0 0 0 
0 0 0 0 0 0 0 0 0 
0 0 0 0 0 0 0 0 0 
0 0 0 0 0 0 0 0 0 
0 0 0 0 0 0 0 0 0 
0 0 0 0 0 0 0 0 0 
0 0 0 0 0 0 0 0 0 
0 0 0 0 0 0 0 0 0 
0 0 0 0 0 0 0 0 0 
0 0 0 0 0 0 0 0 0 
0 0 0 0 0 0 0 0 0 
0 0 0 0 0 0 0 0 0 
0 2.3599e-12 0 0 0 0 0 0 0 
0 0 0 0 0 0 0 0 0 
0 0 0 0 5.28642e-12 0 0 0 0 
0 0 0 0 0 0 0 0 0 
0 0 0 0 0 0 0 0 0 
0 0 0 0 0 0 0 0 0 
0 0 0 0 0 0 0 0 0 
0 0 0 0 0 0 0 0 0 
0 0 0 0 0 0 0 0 0 
0 0 0 0 0 0 0 0 0 
0 0 0 0 0 0 0 0 0 
0 0 0 0 0 0 0 0 0 
0 0 0 0 0 0 0 0 0 
0 0 0 0 0 0 0 0 0 
0 0 0 0 0 0 0 0 0 
0 0 0 0 0 0 0 0 0 
0 0 0 0 0 0 0 0 0 
0 0 0 0 0 0 0 0 0 
0 0 0 0 0 0 0 0 0 
0 0 0 0 0 0 0 0 0 
0 0 0 0 0 0 0 0 0 
0 0 1.43667e-12 0 0 0 0 0 0 
0 2.22595e-13 0 0 0 0 0 0 0 
0 0 0 0 0 0 0 1.15746e-12 0 
0 0 0 0 0 0 0 0 0 
0 0 2.08424e-12 0 0 0 0 0 0 
0 0 0 0 0 0 0 0 0 
0 0 0 0 0 0 0 0 0 
0 0 0 0 0 0 0 0 0 
0 0 0 0 0 0 0 0 0 
0 0 0 0 0 0 0 0 0 
0 0 0 4.1866e-12 0 0 0 0 0 
0 0 0 0 0 0 0 0 0 
0 0 0 0 0 0 0 0 0 
0 0 0 0 0 0 0 0 0 
0 0 0 0 0 0 0 0 0 
0 0 0 0 0 0 0 0 0 
0 0 0 0 0 0 0 0 0 
0 1.91881e-12 0 0 0 0 0 0 0 
0 0 0 0 0 0 0 0 0 
0 0 0 0 0 0 0 0 0 
0 0 0 0 0 0 0 0 0 
0 0 0 0 0 0 0 0 0 
0 0 0 0 0 0 0 0 0 
0 0 0 0 0 0 0 0 0 
0 0 0 0 0 0 0 0 0 
0 0 0 0 0 0 0 0 0 
0 0 0 0 0 0 0 0 0 
0 0 0 0 1.85793e-12 0 0 0 0 
0 0 0 0 0 0 0 0 9.1071e-12 
0 0 0 0 0 0 0 0 0 
0 0 0 0 0 0 0 0 0 
0 0 0 3.55081e-12 0 0 0 0 0 
0 0 0 0 0 0 0 0 0 
0 0 0 7.06346e-12 0 0 0 0 0 
0 0 0 0 0 0 0 0 0 
0 0 0 6.23659e-14 0 0 0 0 0 
0 0 0 0 0 0 0 0 0 
0 0 0 0 0 0 0 0 0 
0 0 0 0 0 0 0 0 0 
0 0 0 0 0 0 0 0 0 
0 0 0 0 0 0 0 0 0 
0 0 0 0 0 0 0 0 0 
0 0 0 0 0 0 0 0 0 
0 0 0 0 0 0 0 0 0 
0 0 0 0 0 0 0 0 0 
0 0 0 0 0 0 0 0 0 
0 0 0 0 0 0 0 0 0 
0 0 0 0 0 0 0 0 0 
0 0 0 0 0 0 0 0 0 
0 0 0 0 0 0 0 0 0 
0 0 0 0 0 0 0 0 0 
0 0 0 0 0 0 0 0 0 
0 0 0 0 0 0 0 0 0 
0 0 0 0 0 0 0 0 0 
0 0 0 0 0 0 0 0 0 
0 0 0 0 0 1.12683e-12 0 0 0 
0 0 0 0 0 0 0 0 0 
0 4.79532e-13 0 0 0 0 0 0 0 
0 0 0 0 0 0 0 0 1.39076e-12 
0 0 0 0 0 0 0 0 0 
0 0 0 0 0 0 0 0 0 
0 0 0 0 0 0 0 0 0 
0 0 0 0 0 0 0 0 0 
0 0 0 0 0 0 0 0 0 
0 0 0 0 0 0 0 0 0 
0 0 0 0 0 1.79819e-12 0 0 0 
0 0 0 0 0 0 0 0 0 
0 0 0 0 0 0 0 0 0 
0 0 0 0 0 0 0 1.22868e-12 0 
0 0 0 0 0 0 0 0 0 
0 0 0 0 0 0 0 0 0 
0 0 0 0 0 0 0 0 0 
0 0 0 0 0 0 0 0 0 
0 0 4.16453e-13 0 0 0 0 0 0 
0 0 0 0 0 0 0 0 0 
0 0 0 0 0 0 0 0 0 
0 0 0 0 0 0 0 0 0 
0 0 0 0 0 0 0 0 0 
0 0 0 0 0 0 0 0 0 
0 0 0 0 0 0 0 0 0 
0 0 0 0 0 0 0 0 0 
0 0 0 0 0 0 0 0 0 
0 0 0 0 0 0 0 2.38026e-12 0 
0 0 0 0 0 0 0 0 0 
1.59081e-11 0 0 0 2.88672e-11 6.14712e-12 0 3.31141e-13 0 
0 0 0 0 0 0 0 0 0 
0 2.34542e-11 0 0 0 0 0 0 1.72616e-11 
0 0 0 0 0 0 0 0 0 
0 0 0 0 0 0 0 0 0 
0 0 0 0 0 0 0 0 0 
0 0 0 0 0 0 0 0 0 
0 0 0 0 0 0 0 0 0 
0 0 0 0 0 0 0 0 0 
0 0 0 0 0 0 0 0 0 
0 0 0 0 0 0 0 0 0 
0 0 0 0 0 0 0 0 0 
0 0 0 0 0 0 0 0 0 
0 0 0 0 0 0 0 0 0 
0 0 0 0 0 0 0 0 0 
0 0 0 0 0 5.51556e-13 0 0 0 
0 0 0 0 0 0 0 0 0 
0 0 0 0 0 0 0 0 0 
0 0 0 0 0 0 0 0 0 
0 0 0 0 0 0 0 0 0 
0 0 0 0 0 0 0 0 0 
0 0 0 0 0 0 0 0 0 
0 0 0 0 0 8.91908e-14 0 0 0 
0 0 0 0 0 0 0 0 0 
0 0 0 0 0 0 0 0 0 
0 0 0 0 0 0 0 0 0 
0 0 8.88261e-12 0 0 0 0 0 0 
0 0 0 0 0 1.89287e-11 1.21595e-11 0 0 
0 0 0 0 0 0 0 0 0 
0 0 0 0 0 0 0 0 0 
0 0 0 0 0 0 0 0 0 
7.53788e-12 0 0 0 0 2.3669e-11 0 0 0 
0 0 0 0 0 8.7239e-12 0 0 0 
0 0 0 0 0 0 0 0 0 
0 0 0 0 0 0 0 0 0 
0 0 0 0 0 0 0 0 0 
0 0 0 0 0 1.0698e-11 0 1.60442e-11 0 
0 0 0 0 0 0 0 0 0 
0 0 0 0 0 6.56242e-13 0 0 0 
0 0 0 0 0 0 0 0 0 
0 0 0 0 0 0 0 0 0 
0 0 0 0 0 0 0 0 0 
0 0 0 0 0 0 0 0 0 
0 0 0 0 0 0 0 6.00977e-12 0 
0 0 0 0 0 0 0 0 0 
0 0 0 0 0 0 0 0 0 
0 0 0 0 0 0 0 0 0 
0 0 0 0 0 0 0 0 0 
0 0 0 0 0 0 0 1.32462e-12 0 
0 0 0 0 0 0 0 0 0 
0 0 0 0 0 0 0 0 0 
0 0 0 0 0 0 0 0 0 
0 0 0 0 0 0 0 0 0 
0 0 0 0 0 0 0 0 1.81603e-12 
0 0 0 0 0 0 0 0 0 
0 0 0 0 0 1.79111e-11 0 2.78059e-11 0 
0 0 0 0 0 0 0 0 0 
0 0 0 0 2.09113e-11 0 3.09199e-11 0 0 
7.55457e-12 0 0 0 0 0 0 0 0 
2.91775e-11 0 0 0 0 0 0 0 0 
0 1.657e-11 1.54897e-11 0 0 0 0 0 0 
0 0 0 0 0 0 0 0 0 
0 0 0 0 7.24802e-12 0 0 0 0 
0 0 0 0 0 0 3.38169e-12 0 0 
0 0 0 0 0 0 0 0 0 
0 0 0 0 0 0 0 0 0 
0 0 0 0 0 0 0 0 0 
0 0 0 0 0 0 0 0 0 
0 0 0 0 0 0 0 0 0 
0 0 0 0 0 0 0 0 0 
0 0 0 0 0 0 0 0 0 
0 0 6.3171e-12 0 0 0 0 0 0 
0 0 0 0 0 0 0 0 0 
0 0 0 0 0 0 0 0 0 
0 0 0 0 0 0 0 0 0 
0 0 0 1.66217e-12 0 0 0 0 0 
0 0 0 0 0 0 0 0 0 
0 0 0 0 0 0 0 0 0 
0 0 0 0 7.81686e-13 0 0 0 0 
0 0 0 0 0 0 0 0 0 
0 0 0 0 0 0 0 0 0 
0 0 7.69694e-12 2.48589e-11 0 0 0 8.08257e-12 0 
0 0 0 0 0 0 0 0 0 
0 3.04949e-11 0 3.62716e-12 0 0 0 0 0 
0 0 5.1894e-12 0 0 0 0 0 0 
0 0 0 0 0 0 0 0 0 
0 0 0 0 0 0 0 1.27315e-11 0 
0 0 0 0 0 0 0 0 0 
0 3.33638e-11 0 0 0 0 0 0 0 
1.20337e-11 0 0 0 0 0 0 0 0 
0 0 0 0 0 0 0 0 0 
9.40463e-12 0 0 0 0 0 0 6.50408e-12 0 
0 0 0 0 0 0 1.21813e-11 0 0 
0 0 0 0 0 0 0 0 0 
0 0 0 0 0 0 0 0 0 
0 0 0 0 0 0 0 0 0 
0 0 0 0 0 0 0 0 0 
0 0 0 0 0 0 0 0 0 
0 0 0 0 0 0 0 0 5.76051e-12 
0 0 0 1.28116e-11 0 0 0 0 0 
0 0 0 0 0 0 0 0 0 
0 0 0 0 0 0 0 0 0 
0 0 0 0 0 0 0 0 0 
0 0 0 0 0 0 0 0 0 
0 0 0 0 0 0 0 1.16004e-13 0 
0 0 0 0 0 0 0 0 0 
0 0 0 0 0 0 0 0 0 
0 0 0 0 0 0 0 0 0 
0 0 0 0 0 0 0 0 0 
0 0 0 0 1.19472e-12 0 0 0 0 
0 0 1.56875e-11 9.12894e-12 0 1.33041e-11 0 0 0 
3.95541e-11 0 3.85882e-11 0 0 0 0 0 0 
2.49769e-11 0 0 0 0 0 0 0 0 
0 3.14226e-11 0 0 0 0 0 5.73749e-11 0 
0 0 0 0 0 0 0 0 0 
0 0 0 0 0 0 0 0 0 
3.82707e-11 0 0 8.95093e-12 0 1.56832e-11 0 0 0 
0 0 0 0 0 0 4.43895e-12 0 0 
0 0 0 0 0 0 0 2.1182e-13 0 
2.90763e-11 0 0 0 0 0 0 0 0 
0 0 0 0 0 0 0 0 0 
0 0 0 9.68536e-12 0 0 8.95313e-12 0 0 
0 0 0 0 0 0 0 0 0 
0 0 0 0 0 0 0 0 0 
0 0 0 0 0 0 0 0 0 
0 0 0 0 0 0 0 0 0 
0 0 0 4.64454e-13 0 0 0 0 0 
0 0 0 0 0 0 0 0 0 
6.31634e-12 0 0 0 0 0 0 0 0 
0 0 0 0 0 0 0 0 0 
0 0 0 0 0 0 0 0 0 
0 0 0 0 0 0 0 0 0 
0 0 0 0 0 0 0 0 0 
0 0 0 0 0 0 0 0 0 
0 0 0 0 0 0 0 0 0 
0 0 0 0 0 0 7.26158e-12 0 0 
3.63666e-11 0 4.328e-11 0 0 0 0 0 0 
0 0 0 0 0 0 0 0 0 
0 0 0 0 2.20094e-11 0 3.17132e-11 0 0 
2.1409e-11 2.48871e-11 0 0 0 4.39786e-11 0 0 0 
0 0 0 0 0 0 0 0 0 
0 0 0 2.20517e-11 7.00394e-11 0 0 2.75713e-11 0 
4.96234e-11 0 0 0 0 0 0 0 0 
0 3.45744e-11 0 4.59217e-11 0 0 0 0 0 
0 0 0 0 1.29136e-11 0 0 0 1.43098e-11 
0 0 0 0 0 0 0 0 0 
0 0 0 0 0 0 0 0 0 
0 0 0 5.37436e-11 1.89029e-11 0 0 0 0 
0 0 0 0 8.26327e-12 0 0 0 0 
0 1.72117e-11 0 0 0 0 0 0 0 
0 0 1.40759e-11 0 0 0 0 0 0 
1.32157e-12 0 0 0 0 0 0 0 0 
1.95204e-12 0 0 0 0 0 0 2.30044e-12 0 
0 0 0 0 0 0 0 0 0 
0 0 0 0 0 1.01977e-12 0 0 2.82271e-11 
0 0 0 0 0 0 0 0 0 
0 0 0 0 0 0 0 0 0 
0 0 0 0 0 0 0 0 0 
0 0 0 0 0 0 0 0 0 
0 0 0 0 0 0 0 0 0 
0 0 0 0 0 0 0 0 0 
0 0 0 0 0 0 0 0 0 
0 0 0 0 0 0 0 0 0 
0 0 0 0 0 0 0 0 0 
3.51508e-11 0 0 0 5.79755e-11 0 0 0 0 
0 0 0 0 0 0 0 0 0 
0 0 1.44229e-11 1.65771e-11 0 0 0 0 0 
0 0 0 0 2.07553e-11 0 0 0 0 
0 0 0 0 0 7.88105e-11 0 0 8.92363e-12 
2.32148e-11 0 6.73164e-11 1.04234e-10 0 0 0 0 0 
0 0 0 0 0 0 5.84156e-13 0 0 
4.48926e-11 5.15221e-11 0 0 5.88597e-11 0 0 0 0 
4.18106e-11 0 0 0 0 0 0 0 0 
0 0 0 0 2.17997e-11 0 0 0 2.8076e-12 
0 7.32574e-12 0 0 0 0 0 0 0 
0 0 0 0 4.92905e-11 0 0 1.31205e-11 0 
9.53529e-12 0 0 2.5148e-11 0 0 0 0 0 
0 0 0 0 0 0 0 0 0 
0 1.71669e-11 0 0 0 0 0 0 0 
0 2.82355e-11 0 2.53397e-12 0 0 0 0 0 
0 0 0 0 0 0 0 0 0 
0 0 0 0 0 0 0 7.89202e-12 0 
0 9.80778e-12 0 0 0 0 0 0 0 
0 0 0 0 7.9635e-12 0 0 0 0 
0 0 1.79568e-12 0 0 0 0 0 0 
0 0 0 0 0 0 0 0 0 
1.43968e-12 0 0 0 0 0 0 0 0 
0 0 1.6298e-12 0 0 0 0 0 0 
0 0 0 0 0 0 0 0 0 
0 0 0 0 0 0 0 0 0 
0 0 6.26024e-13 0 0 1.70465e-11 0 0 0 
0 2.25534e-12 0 0 9.41345e-12 0 0 0 0 
0 0 4.51898e-11 0 0 0 0 5.02555e-11 0 
0 0 0 0 0 1.69279e-11 0 0 0 
0 0 0 0 8.84355e-11 0 2.05054e-10 0 0 
0 0 4.54517e-11 3.49349e-11 1.65742e-11 0 0 3.06809e-11 0 
0 0 0 0 0 4.4749e-13 0 0 8.00856e-11 
0 0 0 0 0 0 7.99176e-11 0 0 
0 0 0 0 7.69803e-11 0 0 5.68955e-11 0 
0 0 0 0 0 2.64852e-11 0 0 0 
3.34383e-11 0 0 0 0 0 1.85905e-11 0 0 
0 0 0 0 0 0 0 0 5.83877e-11 
0 0 0 0 8.27619e-11 0 1.27369e-10 0 0 
0 3.54985e-11 0 0 0 0 2.91033e-11 0 0 
6.45917e-11 0 4.66627e-11 0 0 2.29012e-11 0 0 0 
0 0 0 0 1.70213e-11 0 0 3.72738e-11 0 
0 0 2.42419e-11 2.58719e-11 0 0 0 0 0 
0 0 0 0 0 0 0 0 0 
0 0 0 0 0 0 0 0 0 
0 0 0 0 0 0 0 0 0 
0 0 1.51585e-11 3.37701e-12 0 0 0 3.24468e-11 0 
0 0 0 0 0 0 0 0 0 
0 0 0 0 0 0 0 0 0 
0 0 0 0 0 0 0 0 0 
0 0 0 0 0 0 0 0 0 
0 0 0 0 0 0 0 0 0 
0 0 0 0 0 0 0 0 0 
0 0 0 0 0 0 0 4.14263e-11 0 
0 0 0 0 3.77421e-12 0 0 0 0 
0 7.01399e-13 0 0 0 4.58927e-11 0 0 0 
0 2.3441e-10 0 0 6.53631e-11 0 0 0 0 
3.76683e-12 0 0 1.0435e-11 0 0 0 8.10255e-13 0 
0 0 0 2.02052e-10 2.43314e-08 0 0 0 4.74221e-11 
0 3.21042e-11 0 0 0 0 0 0 0 
0 0 0 0 2.45707e-10 0 0 0 3.33825e-11 
0 8.43343e-12 0 2.03471e-11 0 0 0 0 6.71362e-11 
0 0 0 0 0 0 0 0 0 
0 0 0 0 0 0 0 0 3.90925e-11 
0 0 2.25947e-11 0 1.71027e-11 0 0 0 0 
0 0 5.41911e-11 0 0 0 0 0 0 
0 0 5.95562e-11 7.0302e-11 0 0 8.55148e-13 0 0 
1.28254e-10 1.44326e-11 0 0 0 8.96638e-11 5.02142e-11 0 0 
0 0 0 0 0 0 0 0 0 
0 1.8914e-11 0 0 0 0 0 0 0 
1.84774e-11 0 0 0 2.18102e-12 2.79047e-11 0 0 0 
0 0 0 0 0 0 0 0 0 
0 0 0 0 0 0 0 6.3967e-12 0 
0 0 1.55116e-11 0 0 3.87775e-11 0 0 0 
0 0 0 7.49306e-11 0 3.09478e-11 0 0 0 
0 0 0 0 0 0 3.94996e-12 0 0 
0 0 0 0 0 0 0 0 0 
0 0 0 0 0 0 0 0 0 
0 0 0 0 0 0 0 0 0 
0 0 0 0 0 0 0 0 0 
0 0 0 0 0 0 0 0 0 
0 0 0 0 1.25738e-11 8.17803e-12 0 0 6.48595e-11 
0 0 0 4.52103e-11 2.58182e-12 3.39898e-11 0 0 0 
0 0 0 0 0 0 0 0 0 
0 4.67364e-11 0 0 0 2.41772e-11 7.35658e-11 0 1.059e-11 
0 1.04418e-11 0 0 1.30031e-11 2.15022e-11 4.77378e-11 0 0 
0 0 0 1.79201e-10 0 0 4.86863e-11 0 2.59037e-11 
0 0 0 0 0 0 0 2.1714e-11 5.21719e-11 
3.26312e-11 1.27783e-10 2.54806e-08 0 0 0 0 0 0 
2.59219e-11 0 0 0 2.64956e-08 0 0 1.3466e-10 0 
0 1.61242e-12 5.56356e-11 0 2.16548e-11 1.03567e-10 1.40945e-10 0 0 
0 0 0 5.31696e-11 2.66005e-11 1.28525e-11 0 0 0 
0 0 0 1.61524e-11 0 0 0 0 0 
1.41154e-11 0 1.07015e-10 5.65813e-11 0 0 0 0 0 
0 0 0 2.52301e-08 0 0 0 2.19302e-11 0 
8.57192e-11 0 0 1.80091e-10 5.58183e-11 0 0 6.11011e-11 7.72008e-11 
0 0 2.69447e-11 0 0 4.3945e-11 0 0 0 
0 4.59408e-11 0 0 2.54323e-11 0 0 0 0 
0 0 0 0 0 0 0 2.30849e-11 0 
0 0 0 0 0 0 0 0 0 
0 0 0 0 0 0 5.44489e-12 0 0 
0 0 0 0 0 0 0 0 6.28859e-12 
0 0 0 0 0 0 0 0 0 
0 0 1.21157e-11 0 0 0 0 0 0 
0 9.55184e-13 0 0 0 0 0 0 0 
0 0 0 0 0 0 0 0 0 
0 0 0 0 0 0 0 0 0 
0 0 0 0 0 0 0 0 0 
0 0 0 0 0 0 0 0 0 
1.725e-11 0 0 0 0 8.34625e-11 8.73714e-11 0 0 
0 1.98798e-11 0 0 0 0 0 0 0 
0 0 0 0 0 1.21119e-11 0 0 0 
0 0 0 0 0 0 3.86767e-11 0 0 
0 0 0 0 1.77843e-11 0 7.17472e-11 8.24725e-11 0 
0 0 1.08176e-10 7.6046e-11 6.99492e-12 0 0 0 0 
0 0 0 0 0 4.61896e-11 0 0 0 
1.34105e-10 0 0 0 1.39987e-10 0 0 0 0 
3.0343e-11 0 1.73851e-10 0 0 0 0 0 5.57347e-11 
3.12758e-11 0 7.21805e-11 2.28932e-11 0 0 2.46561e-08 0 0 
3.37975e-11 0 0 0 0 1.0501e-11 0 0 0 
0 0 4.09565e-11 0 0 8.26989e-11 7.47249e-11 0 0 
1.01867e-10 7.89364e-11 2.86324e-11 0 7.66864e-11 0 0 0 1.32425e-10 
0 0 0 3.13935e-11 0 1.66078e-10 0 0 0 
1.0879e-10 0 0 0 5.01468e-11 6.00815e-11 0 1.04635e-11 0 
0 0 4.99704e-12 3.24542e-11 0 0 0 0 0 
0 0 0 0 0 2.6387e-11 0 8.67674e-11 0 
6.33249e-13 0 5.81351e-11 0 7.74962e-11 0 0 0 0 
0 0 0 0 0 0 0 0 0 
0 6.99187e-12 0 0 0 0 0 0 0 
0 0 1.31237e-11 8.64988e-11 1.83973e-11 0 0 0 0 
0 5.31058e-11 0 4.17605e-11 3.99403e-11 0 0 0 8.79477e-12 
0 2.42249e-11 0 0 0 0 0 0 0 
0 0 0 0 0 0 0 0 0 
0 0 0 0 0 0 0 0 0 
0 0 0 0 0 0 0 0 0 
0 0 0 0 0 0 0 0 0 
0 0 0 0 0 0 0 0 0 
0 0 0 4.90358e-11 0 0 0 0 0 
0 0 0 4.58979e-11 4.57256e-11 0 0 0 0 
0 2.63405e-08 0 2.44441e-10 0 0 5.64319e-12 0 0 
0 1.25271e-10 3.95967e-12 0 0 0 0 0 3.49238e-11 
3.24639e-11 0 0 0 0 2.48803e-11 6.34133e-11 0 0 
0 0 0 0 1.30576e-11 0 0 0 0 
0 0 0 0 0 0 5.51684e-11 0 0 
0 0 9.76381e-11 0 3.10836e-11 0 0 0 0 
0 0 0 0 0 0 4.80315e-11 4.89261e-12 0 
0 1.26181e-10 0 0 0 0 3.61481e-10 0 0 
0 0 0 0 0 0 0 2.13928e-11 0 
0 0 0 0 0 2.13047e-10 0 0 5.66795e-11 
0 0 0 3.53657e-11 5.01724e-11 2.48845e-11 0 0 0 
1.25642e-10 0 0 0 0 2.95574e-10 2.73414e-08 2.58674e-10 0 
0 0 1.18494e-10 0 0 8.42713e-11 0 0 0 
1.12766e-11 0 0 0 0 4.57987e-12 0 0 0 
0 5.20353e-11 1.22206e-10 0 0 0 0 4.18715e-11 6.36752e-11 
0 0 0 0 0 0 0 8.45527e-12 0 
0 0 0 0 7.8074e-12 0 0 0 0 
0 0 0 0 3.36028e-11 0 0 0 0 
1.70093e-13 0 6.83741e-11 0 7.73744e-13 2.39049e-10 0 0 0 
0 0 0 6.07684e-11 0 0 0 0 0 
0 0 2.56824e-12 0 0 0 0 0 0 
0 0 0 0 0 0 0 0 0 
0 0 0 0 0 0 0 0 0 
0 0 0 0 1.59176e-12 0 0 0 0 
0 0 0 0 0 0 0 0 0 
0 0 3.4485e-12 0 0 0 0 4.55042e-11 0 
0 7.10023e-11 0 0 2.47359e-08 0 3.2593e-11 0 0 
3.68732e-11 0 3.68776e-11 0 0 0 0 0 0 
3.59389e-10 0 0 0 0 1.67568e-11 1.44473e-10 0 0 
1.4524e-10 0 0 0 8.41834e-11 8.60935e-12 0 0 0 
0 0 3.98473e-11 1.62913e-11 0 0 4.58158e-11 0 0 
0 0 0 1.75455e-11 0 2.39378e-11 0 2.98024e-11 0 
0 0 0 0 0 2.39888e-10 2.08163e-10 0 0 
0 3.2057e-11 6.7622e-11 9.77137e-11 0 0 1.55476e-10 0 0 
3.66287e-11 0 0 1.1311e-12 0 0 1.04439e-10 9.81721e-11 0 
1.41514e-10 0 1.66568e-10 0 0 1.02319e-10 0 5.3994e-11 0 
0 0 1.63396e-11 0 0 0 0 0 0 
4.42013e-11 0 0 2.44671e-08 1.53131e-10 0 1.00517e-10 0 0 
0 0 0 0 0 1.07919e-10 0 0 1.48444e-10 
1.45056e-12 5.22814e-12 0 0 0 1.87478e-10 0 0 1.99631e-10 
0 0 0 0 0 0 1.65974e-10 0 4.20649e-11 
0 0 0 0 0 0 0 0 1.1761e-10 
0 0 0 6.72802e-11 1.55778e-10 0 0 0 0 
0 0 0 0 0 0 0 4.81152e-12 0 
0 0 0 0 0 0 0 0 3.58766e-12 
0 0 0 0 0 0 1.21321e-10 0 8.338e-11 
0 0 0 2.49539e-08 0 0 0 0 6.57176e-11 
0 0 4.14381e-11 0 1.84812e-11 0 1.2537e-11 0 0 
0 1.1372e-11 0 0 0 0 0 0 0 
0 0 0 0 0 0 0 0 0 
0 0 0 0 0 0 0 0 0 
0 0 0 0 0 0 0 0 0 
0 0 0 3.70615e-13 0 0 0 0 0 
0 0 0 0 2.60928e-13 0 0 0 0 
0 1.75223e-10 7.99575e-11 1.29541e-10 2.85627e-11 0 0 0 0 
0 0 0 0 0 0 0 0 0 
2.22756e-10 0 0 1.31849e-11 0 1.10612e-10 1.47519e-10 4.57056e-11 0 
0 0 0 0 0 0 0 0 0 
3.10396e-11 0 0 0 0 3.92286e-11 0 7.23276e-11 0 
0 0 0 0 2.65102e-11 0 0 2.20412e-11 0 
6.42268e-11 0 0 0 1.54087e-10 0 3.96656e-11 0 0 
2.95671e-10 0 0 2.98461e-10 0 0 0 0 0 
0 0 0 3.65592e-11 0 6.39425e-11 0 0 2.32977e-10 
0 0 0 0 5.65427e-11 0 0 0 0 
0 0 0 0 0 0 0 0 1.5006e-11 
0 0 0 0 9.50541e-11 0 0 4.37151e-11 0 
7.01357e-11 0 0 3.49735e-11 0 0 0 0 9.9935e-11 
0 0 0 0 1.57883e-10 2.71669e-10 2.71314e-08 0 0 
0 1.26081e-11 0 0 0 6.95463e-11 0 0 0 
0 4.01073e-12 0 0 6.90308e-11 0 1.62026e-10 7.8785e-11 0 
0 0 0 0 0 5.18665e-11 0 0 0 
0 0 0 0 0 0 0 0 0 
2.7552e-12 1.26481e-12 0 0 0 0 9.09644e-12 0 0 
0 0 0 3.08533e-11 6.13304e-11 0 0 1.73973e-11 3.40178e-11 
0 0 0 0 0 1.16523e-11 0 6.07397e-11 4.57848e-11 
0 0 0 0 0 9.32201e-12 0 0 0 
0 1.44848e-11 0 0 0 0 0 0 0 
0 0 0 0 0 0 0 0 0 
0 0 0 0 0 0 0 0 0 
0 0 0 0 0 0 0 0 0 
0 0 0 0 0 0 0 0 0 
0 0 0 1.08262e-12 0 0 6.90682e-11 1.80973e-11 0 
1.1457e-10 2.39438e-11 3.55147e-11 0 0 0 1.19241e-11 0 1.90933e-10 
0 0 2.27408e-11 0 0 2.69309e-10 0 0 2.11199e-10 
0 0 9.55616e-13 0 2.68277e-08 0 0 3.56727e-11 0 
3.80279e-11 0 0 0 7.0462e-11 0 0 0 0 
0 0 0 0 0 0 0 0 0 
0 0 0 0 0 6.73079e-11 6.61685e-11 2.30123e-11 0 
0 0 0 0 0 0 0 0 0 
0 0 0 0 0 0 0 0 1.22979e-10 
0 1.97364e-11 1.83237e-10 1.10805e-10 5.51703e-12 0 1.82512e-11 0 0 
0 0 0 0 0 1.07538e-11 0 0 5.0474e-12 
0 0 0 8.99057e-11 0 0 0 0 3.36461e-11 
2.80767e-11 0 1.52832e-10 0 0 3.74554e-12 0 0 0 
0 8.14673e-11 0 0 0 0 0 1.29292e-10 0 
0 0 0 2.27556e-10 0 0 0 0 0 
0 0 0 0 0 4.83037e-11 0 0 0 
0 0 0 3.56328e-11 0 0 0 0 0 
0 0 0 4.96261e-11 5.64868e-11 1.01322e-10 7.73083e-11 0 0 
0 0 0 0 0 0 0 0 0 
0 0 0 3.73759e-11 0 0 0 0 0 
0 0 0 3.22274e-11 0 1.37945e-10 4.65193e-11 0 0 
0 1.95109e-10 0 0 0 0 0 0 0 
0 0 0 0 3.87743e-11 0 0 0 0 
0 0 0 0 0 0 0 0 0 
0 0 0 0 0 0 0 0 0 
0 0 0 0 0 0 0 0 0 
0 0 0 0 0 0 0 0 0 
0 0 0 0 0 0 0 0 0 
6.52688e-13 0 5.68163e-11 0 0 4.87449e-11 0 3.27033e-11 1.39843e-11 
0 0 0 0 0 0 0 0 0 
0 1.40454e-10 0 0 0 0 0 0 0 
0 6.81652e-11 2.5659e-10 0 0 9.58114e-11 0 0 0 
3.82145e-11 0 0 1.34745e-11 0 0 0 0 1.50869e-11 
0 0 0 0 0 0 2.69802e-11 0 6.78415e-11 
0 0 0 7.82402e-11 7.08082e-11 0 0 0 6.05793e-13 
1.74468e-10 0 0 3.03401e-08 0 0 0 3.48524e-08 0 
0 0 0 1.65723e-10 0 1.04954e-10 0 7.65827e-11 1.80528e-10 
1.63038e-11 2.14086e-11 8.71533e-11 0 0 0 0 6.73348e-11 0 
4.99123e-11 0 0 0 0 0 1.31901e-11 0 0 
0 0 0 0 0 0 0 0 1.24395e-13 
2.42977e-11 0 0 0 8.08625e-11 0 0 0 5.9527e-11 
0 0 0 1.03101e-11 0 0 0 6.04875e-11 0 
8.05398e-11 0 0 0 0 0 0 8.72833e-11 3.74361e-11 
0 0 0 0 0 0 1.55854e-10 0 0 
0 0 0 0 0 0 0 0 0 
0 0 0 0 0 7.41856e-11 7.3806e-11 0 0 
0 0 0 0 9.17645e-12 0 0 0 0 
0 3.79265e-11 0 5.91592e-11 0 0 0 0 0 
0 0 9.19121e-11 0 0 0 0 0 0 
0 0 4.36635e-11 6.2759e-11 2.62404e-11 9.758e-11 0 4.89974e-11 1.3785e-10 
0 0 0 0 0 0 0 0 0 
0 0 0 0 0 0 0 0 0 
0 0 0 0 0 0 0 0 0 
0 0 0 0 0 0 0 0 0 
0 0 0 0 0 0 0 0 0 
0 0 0 0 0 0 0 0 0 
0 4.52388e-11 0 9.53796e-11 0 6.3251e-11 0 0 0 
0 0 0 1.15904e-10 4.53577e-11 3.96283e-11 0 1.01928e-10 0 
0 0 0 0 0 0 0 0 0 
0 0 0 0 0 6.24191e-12 0 0 0 
0 0 0 0 0 0 1.01236e-10 0 0 
0 0 8.49118e-11 0 0 0 1.31287e-11 0 0 
0 0 0 0 0 8.43629e-11 0 1.76368e-10 0 
0 0 2.52673e-10 0 0 0 0 0 0 
0 0 0 0 2.63292e-08 0 0 0 0 
0 0 0 0 0 0 0 0 0 
0 0 0 0 0 0 0 0 1.05345e-11 
0 0 0 0 2.44855e-11 0 0 0 6.25938e-11 
0 2.73411e-12 0 0 1.34397e-10 0 0 0 0 
6.14928e-11 0 0 0 0 0 1.07889e-10 0 7.97943e-11 
5.32439e-11 9.05965e-11 0 0 0 0 1.25714e-10 0 0 
1.05662e-10 2.49754e-08 0 0 0 1.18074e-10 4.39739e-11 0 0 
0 1.94438e-10 0 0 0 0 2.83885e-08 0 0 
6.43732e-11 0 0 0 0 0 0 2.83299e-13 0 
0 0 0 0 0 0 0 0 0 
0 4.6795e-11 0 0 0 1.04626e-10 6.50351e-11 0 0 
1.59323e-11 0 0 0 0 0 0 0 0 
0 0 0 0 0 0 0 0 7.43058e-11 
4.46021e-11 0 0 0 0 0 0 0 0 
0 0 0 0 0 0 0 0 0 
0 0 0 0 0 0 0 0 0 
0 0 0 0 0 0 0 0 0 
0 0 0 0 0 0 0 0 0 
0 0 0 0 0 0 2.36131e-11 0 0 
0 5.56985e-11 0 0 0 0 2.94417e-14 9.94984e-11 0 
3.99131e-10 0 0 0 2.75899e-11 7.91928e-11 0 0 0 
0 3.85848e-08 3.87923e-08 0 0 0 3.36663e-11 0 0 
0 0 7.24742e-11 1.2591e-11 0 0 0 0 0 
0 0 8.69839e-11 0 0 4.22704e-11 0 0 0 
0 0 1.90938e-11 0 0 0 0 0 0 
0 2.08693e-11 0 0 0 0 0 0 0 
0 0 0 0 3.34038e-08 0 0 2.17573e-10 0 
2.63156e-10 0 2.68917e-10 0 0 1.05671e-11 0 0 8.22482e-12 
0 0 0 0 0 4.99015e-11 0 0 0 
0 0 0 0 0 0 0 0 0 
0 8.16053e-11 0 0 0 0 0 0 0 
0 7.2276e-12 0 0 0 0 0 0 0 
0 0 0 1.14827e-10 0 0 0 1.56376e-10 0 
0 9.83201e-12 0 0 0 0 0 0 0 
0 7.39435e-11 9.78067e-12 0 1.05224e-10 5.06744e-11 0 2.16556e-10 0 
0 0 0 0 9.42776e-11 0 0 0 3.31866e-11 
0 0 0 0 0 0 0 0 0 
0 0 0 0 1.47447e-11 1.99995e-11 0 0 2.87265e-11 
0 0 0 0 2.58115e-10 0 0 1.33073e-10 0 
4.87595e-11 1.25722e-10 0 0 0 1.08761e-10 2.31399e-10 0 0 
0 0 0 0 0 0 0 0 1.45818e-11 
0 0 0 0 1.09186e-11 1.07252e-11 0 0 0 
0 0 0 0 0 0 0 0 0 
0 0 0 0 0 0 0 0 0 
0 0 0 0 0 0 0 0 0 
0 0 0 0 0 0 0 0 0 
0 0 0 0 1.67937e-11 0 0 0 0 
0 0 5.78433e-11 0 0 0 0 0 0 
0 6.22614e-12 0 0 5.48454e-11 0 8.93994e-11 0 0 
0 0 2.2316e-10 0 0 9.04587e-11 1.06892e-10 0 0 
0 0 2.44813e-11 0 0 0 0 0 0 
8.12609e-12 0 0 8.22749e-11 0 1.10219e-10 0 0 0 
0 0 0 0 0 0 0 0 0 
0 0 0 0 0 0 1.43895e-11 0 2.35311e-11 
0 4.85743e-10 0 0 0 5.83307e-11 0 2.28238e-11 0 
5.34578e-11 0 0 0 0 0 7.50851e-11 0 0 
0 9.88609e-11 0 0 5.38115e-11 0 0 4.26573e-11 0 
0 0 0 0 0 3.24889e-11 0 0 0 
0 0 0 0 6.41173e-12 0 0 0 0 
0 0 0 0 0 0 0 0 0 
0 3.44547e-11 5.43871e-11 0 0 0 0 0 0 
4.2521e-11 0 0 9.07821e-11 0 0 0 0 0 
0 0 0 0 0 2.1639e-11 0 5.47904e-11 0 
5.70341e-11 0 0 2.1976e-10 0 0 0 4.12994e-11 0 
3.00626e-12 0 0 0 0 0 0 0 0 
0 0 0 0 0 0 1.3213e-12 0 0 
1.96647e-10 1.7404e-10 2.68669e-08 0 0 1.92464e-10 0 0 0 
0 0 4.859e-11 0 0 2.08912e-11 0 0 0 
0 0 0 1.48078e-11 0 0 0 0 0 
0 0 0 0 0 0 0 0 0 
0 0 0 0 0 0 0 0 0 
0 0 0 0 0 0 0 0 0 
0 0 0 0 0 0 0 0 0 
0 0 0 0 0 0 0 0 0 
0 0 0 0 0 0 0 5.14047e-11 0 
0 2.97599e-11 0 0 0 2.68526e-08 0 3.88107e-10 1.07817e-10 
0 0 0 0 2.79029e-10 2.95862e-10 0 0 0 
5.80327e-11 1.99803e-10 0 0 1.17516e-10 0 0 0 0 
0 0 0 0 0 0 0 0 0 
0 0 0 3.09109e-11 1.07069e-10 1.00368e-10 0 3.04125e-10 0 
0 2.09852e-11 0 0 0 0 5.32069e-11 0 0 
0 1.52341e-12 0 1.05144e-10 2.13946e-11 0 4.36023e-11 9.79496e-13 0 
0 0 4.90277e-11 0 1.01208e-10 1.26926e-11 1.42577e-11 0 0 
9.21497e-11 0 5.56181e-12 1.44186e-11 0 0 0 6.4205e-11 0 
0 0 0 0 0 0 0 0 0 
0 0 0 0 2.96808e-11 0 4.09014e-11 0 0 
0 0 0 0 0 0 0 0 0 
0 0 0 0 0 0 4.17692e-11 0 0 
0 0 1.24834e-10 0 0 0 0 3.6933e-12 0 
0 0 0 0 0 5.43804e-11 0 0 1.51867e-11 
1.37721e-10 0 0 0 0 0 0 0 1.83836e-10 
2.76237e-10 0 0 0 9.71178e-11 0 0 2.20505e-11 0 
1.77536e-11 0 0 0 0 0 0 0 0 
0 0 4.18461e-13 0 0 0 0 0 0 
1.06047e-10 8.50315e-11 6.93537e-11 0 0 0 0 0 0 
0 0 1.98198e-10 3.25318e-11 4.99164e-11 1.1325e-10 0 3.11692e-08 0 
0 0 0 0 0 0 0 0 0 
0 0 0 0 0 0 0 0 0 
0 0 0 0 0 0 0 0 0 
0 0 0 0 0 0 0 0 0 
0 0 0 0 0 0 0 0 0 
0 0 0 0 0 0 0 0 0 
0 0 0 0 0 0 0 2.45537e-10 4.04267e-11 
0 0 0 0 2.82349e-10 1.61223e-10 3.41609e-13 4.37049e-12 0 
0 3.3936e-11 0 1.89117e-10 0 0 0 0 0 
2.95661e-11 0 0 0 0 0 0 0 0 
0 0 0 0 0 0 0 1.38729e-10 0 
0 1.3035e-10 0 0 0 0 6.37926e-11 0 3.13226e-11 
1.57747e-11 0 0 5.49975e-11 0 3.21e-11 0 0 0 
0 0 0 0 0 4.75175e-11 2.10329e-10 2.68274e-11 0 
0 0 0 3.09962e-11 0 0 0 1.90841e-11 0 
0 9.71657e-11 0 2.12358e-12 0 0 0 0 0 
0 5.318e-11 1.36463e-10 0 0 0 0 0 1.90685e-11 
1.6187e-11 0 6.01415e-11 0 0 0 0 0 0 
1.17789e-10 0 0 0 0 0 0 0 9.02845e-11 
0 0 0 0 0 0 0 0 0 
0 0 0 0 0 0 3.57934e-11 8.46163e-11 0 
1.32982e-11 1.11203e-10 0 0 0 0 0 0 0 
1.03402e-10 0 0 0 0 0 0 0 0 