# vtk DataFile Version 5.1
vtk output
ASCII
DATASET STRUCTURED_POINTS
DIMENSIONS 250 250 1
SPACING 1 1 1
ORIGIN 0 0 0
POINT_DATA 62500
FIELD FieldData 6
feature_1 1 62500 float
0 0 0 0 0 0 0 0 0 
0 0 1.33936e-12 0 0 0 0 0 0 
0 0 0 0 0 0 0 0 0 
0 0 0 0 0 0 0 0 0 
0 0 0 0 0 0 0 0 0 
0 0 0 0 0 0 0 0 0 
0 0 0 0 0 0 0 0 0 
0 0 0 0 0 0 0 0 0 
0 0 0 0 0 0 0 0 0 
0 0 0 0 0 0 0 0 0 
0 0 0 0 0 0 0 0 0 
0 0 0 0 0 0 0 0 0 
0 0 0 0 0 0 0 0 0 
0 0 0 0 0 0 0 0 0 
0 0 0 0 0 0 0 0 0 
0 0 0 0 0 0 0 0 0 
0 0 0 0 0 0 0 0 0 
0 0 0 0 0 0 0 0 0 
0 0 0 0 0 0 0 0 0 
0 0 0 0 0 0 0 0 0 
0 0 0 0 0 0 0 0 0 
0 0 0 0 0 0 0 0 0 
0 0 0 0 0 0 0 0 0 
0 0 0 0 0 0 0 0 0 
0 0 0 0 0 0 0 0 0 
0 0 0 0 0 0 0 0 0 
0 0 0 0 0 0 0 0 0 
0 0 0 0 0 0 0 0 0 
0 0 0 0 0 0 0 0 0 
0 0 0 0 0 0 0 0 0 
0 0 0 0 0 0 0 0 0 
0 0 0 0 0 0 0 0 0 
0 0 0 0 0 0 0 0 0 
0 0 0 0 0 0 0 0 0 
0 0 0 0 0 0 0 0 0 
0 0 0 0 0 0 0 0 0 
0 0 0 0 0 0 0 0 0 
0 0 0 0 0 0 0 0 0 
0 0 0 0 0 0 0 0 0 
0 0 0 0 0 0 0 0 0 
0 0 0 0 0 0 0 0 0 
0 0 0 0 0 0 0 0 0 
0 0 0 0 0 0 0 0 0 
0 0 0 0 0 0 0 0 0 
0 0 0 0 0 0 0 0 0 
0 1.57481e-13 0 0 0 0 0 0 0 
0 0 0 0 0 0 0 0 0 
0 0 0 0 0 0 0 0 0 
0 0 0 0 0 0 0 0 0 
0 0 0 0 0 0 0 0 0 
0 0 0 0 0 0 0 0 0 
0 0 0 0 0 0 0 0 0 
0 0 0 0 0 0 0 0 0 
0 0 0 0 0 0 0 0 0 
0 0 0 0 0 0 0 0 0 
0 0 0 0 0 0 0 0 0 
0 0 0 0 0 0 0 0 0 
0 0 0 0 0 0 0 0 0 
0 0 0 0 0 0 0 0 0 
0 0 0 0 0 0 0 0 0 
0 0 0 0 0 0 0 0 0 
0 0 0 0 0 0 0 0 0 
0 0 0 0 0 0 0 0 0 
0 0 0 0 0 0 0 0 0 
0 0 0 0 0 0 0 0 0 
0 0 0 0 0 0 0 0 0 
0 0 0 0 0 0 0 0 0 
0 0 0 0 0 0 0 0 0 
0 0 0 0 0 0 0 0 0 
0 0 0 0 0 0 0 0 0 
0 0 5.81232e-13 0 0 0 0 0 0 
0 0 0 0 0 0 0 0 0 
0 0 0 0 0 0 0 0 0 
0 0 0 0 0 0 0 0 0 
0 0 0 0 0 0 0 0 0 
0 0 0 0 0 0 0 0 0 
0 0 0 0 0 0 0 0 0 
0 0 0 0 0 0 0 0 0 
0 0 0 0 0 2.8287e-12 0 0 0 
0 0 0 0 0 0 0 0 0 
0 0 0 0 0 0 0 0 0 
0 0 0 0 0 0 0 0 0 
0 0 0 0 0 0 0 0 0 
0 0 0 0 0 0 0 0 0 
0 0 0 0 0 0 0 0 0 
0 0 0 0 0 0 0 0 0 
0 0 0 0 0 0 0 0 0 
0 0 0 0 0 0 0 0 0 
0 0 0 0 0 0 0 0 0 
0 0 0 0 0 0 0 0 0 
0 0 0 0 0 0 0 0 0 
0 0 0 0 0 0 0 0 0 
0 0 0 0 0 0 0 3.32649e-12 0 
0 0 0 0 0 0 0 0 0 
0 0 0 0 0 0 0 0 0 
0 0 0 0 0 0 0 0 0 
0 0 0 0 0 0 0 0 0 
0 0 0 0 0 0 0 0 0 
0 0 0 0 6.16196e-13 0 0 0 0 
0 0 0 0 0 0 0 0 0 
0 0 0 0 0 0 0 0 0 
0 0 0 0 0 0 0 0 0 
0 0 0 0 0 0 0 0 0 
0 0 0 0 0 0 0 0 0 
0 0 0 0 0 0 0 0 0 
0 0 0 0 0 0 0 0 0 
0 0 0 0 0 0 0 0 0 
0 0 0 0 0 0 0 0 0 
0 0 0 0 0 0 0 0 0 
0 0 0 0 0 0 0 0 0 
0 0 0 0 0 0 0 0 0 
0 0 0 0 0 0 0 0 0 
0 0 0 0 0 0 0 0 0 
0 0 0 0 0 0 0 0 0 
0 0 0 0 0 0 0 0 0 
0 0 0 0 0 0 0 0 0 
0 0 0 0 0 0 0 0 0 
0 0 0 0 0 0 0 0 0 
0 0 0 0 0 0 0 0 0 
0 0 0 0 3.38644e-13 0 0 0 0 
0 0 0 0 0 0 0 0 0 
0 0 0 0 0 0 0 0 0 
0 0 0 0 0 0 0 0 0 
0 0 0 0 0 0 0 0 0 
0 0 0 0 0 0 0 0 0 
0 0 0 0 0 0 0 0 0 
0 0 0 0 0 0 0 0 0 
0 0 0 0 0 0 0 0 0 
0 0 0 0 0 0 0 0 0 
0 0 0 0 0 0 0 0 0 
0 0 0 0 0 0 0 0 0 
0 0 0 0 0 0 0 0 0 
0 0 0 0 2.04389e-12 0 0 0 0 
0 0 0 0 0 0 0 0 0 
0 0 0 0 0 0 0 0 0 
0 0 0 0 0 0 0 0 0 
0 0 0 0 0 0 0 0 0 
0 0 0 0 0 0 0 0 0 
0 0 0 0 0 0 0 0 0 
0 0 0 0 0 0 0 0 0 
0 0 0 0 0 0 0 0 0 
0 0 0 0 0 0 0 0 0 
0 0 0 0 0 0 0 0 0 
0 0 0 0 0 0 0 0 0 
0 0 0 0 0 0 0 1.60185e-12 0 
0 0 0 0 0 0 0 0 0 
0 0 0 0 0 0 0 0 0 
0 0 0 0 0 0 0 0 0 
0 0 0 0 0 0 0 0 0 
0 0 0 0 0 0 0 0 0 
0 0 0 0 0 0 0 0 0 
0 0 0 0 0 0 0 0 0 
0 0 0 0 0 0 0 0 0 
0 0 0 0 0 0 0 0 0 
0 0 0 0 0 0 0 2.16953e-13 0 
0 0 0 0 0 0 0 0 0 
0 0 0 0 0 0 0 0 0 
0 0 0 0 0 0 0 0 0 
0 0 0 0 0 0 0 0 0 
4.66241e-13 0 0 0 0 0 0 0 0 
0 0 0 0 0 0 0 0 0 
0 0 0 0 0 0 0 0 0 
0 0 0 0 0 0 0 0 0 
0 0 0 0 0 0 0 0 0 
0 0 0 0 0 0 0 0 0 
0 0 0 0 0 0 0 0 0 
0 0 0 0 0 0 0 0 0 
0 0 0 0 0 0 0 0 0 
0 0 0 0 0 0 0 0 0 
0 0 0 0 0 0 0 0 0 
0 0 0 0 0 0 0 0 0 
0 0 0 0 0 0 0 0 0 
0 0 0 0 0 0 0 0 0 
0 0 0 0 0 0 0 0 0 
0 0 0 0 0 0 0 0 0 
0 0 0 0 0 0 0 0 0 
0 0 0 0 0 0 0 0 0 
0 0 0 0 0 0 0 0 0 
0 0 0 0 0 0 0 0 0 
0 0 0 0 0 0 0 0 0 
0 7.5287e-14 0 0 0 0 0 0 0 
0 0 0 0 0 0 0 0 0 
0 0 0 0 0 0 0 0 0 
0 0 0 0 0 0 0 0 0 
0 0 0 0 0 0 0 0 0 
0 0 0 0 0 0 0 0 0 
0 0 0 0 0 0 0 0 0 
0 0 0 0 0 0 0 0 6.51841e-13 
0 0 0 0 0 0 0 0 0 
0 0 0 0 0 0 0 0 0 
0 0 0 0 0 0 0 0 0 
0 0 0 0 0 0 0 0 0 
0 0 0 0 0 0 0 0 0 
0 0 0 0 0 0 0 0 0 
0 0 0 0 0 0 0 0 0 
0 0 0 0 0 0 0 0 0 
0 0 0 0 0 0 0 0 0 
0 0 0 0 0 0 0 0 0 
0 0 0 0 0 0 0 0 0 
0 0 0 0 0 0 0 0 0 
0 0 0 0 0 0 0 0 0 
0 0 0 0 0 0 0 0 0 
0 0 0 0 0 0 0 0 0 
0 0 0 0 0 0 0 0 0 
0 0 0 0 0 0 0 0 0 
0 0 0 0 0 0 0 0 0 
0 0 0 0 0 0 0 0 0 
0 0 0 0 0 0 0 0 0 
0 0 0 0 0 0 0 0 0 
0 0 0 0 0 0 0 0 0 
0 0 0 0 0 0 0 0 0 
0 0 0 0 0 0 0 0 0 
0 0 0 0 0 0 0 0 0 
0 0 0 0 0 0 0 0 0 
0 0 0 0 0 0 0 0 0 
0 0 0 0 0 0 0 0 0 
0 0 0 0 0 0 0 0 0 
0 0 0 0 0 0 0 0 0 
0 0 0 0 0 0 0 0 0 
0 0 0 0 0 0 0 0 0 
0 0 0 1.5478e-12 0 0 0 0 0 
0 0 0 0 0 0 0 0 0 
0 0 0 0 0 0 0 0 0 
0 0 0 0 0 0 0 0 0 
0 0 0 0 0 0 0 0 0 
0 0 0 0 0 0 0 0 0 
0 0 0 0 0 0 0 0 0 
0 0 0 0 0 0 0 0 0 
0 0 0 0 0 0 0 0 0 
0 0 0 0 0 0 0 0 0 
0 0 0 0 0 0 0 0 0 
0 0 0 0 0 0 0 0 0 
0 0 0 0 0 0 0 0 0 
0 0 0 0 0 0 0 0 0 
0 0 0 0 0 0 0 0 0 
0 0 0 0 0 0 0 0 0 
0 0 0 0 0 0 0 0 0 
0 0 0 0 0 0 0 0 0 
0 0 0 0 0 0 0 0 0 
0 0 0 0 0 0 0 0 0 
0 0 0 0 0 0 0 0 0 
0 0 0 0 0 0 0 0 0 
0 0 0 0 0 0 0 0 0 
0 0 0 0 0 0 0 3.02989e-13 0 
0 0 0 0 0 0 0 0 0 
0 0 0 0 0 0 0 0 0 
0 0 0 0 0 0 0 0 0 
0 0 0 0 0 0 0 0 0 
0 0 0 0 0 0 0 0 0 
0 0 0 0 0 0 0 0 0 
0 0 0 0 0 0 0 0 0 
0 0 0 0 0 0 0 0 0 
0 0 0 0 0 0 0 0 0 
0 0 0 0 0 0 0 0 0 
0 0 0 0 0 0 0 0 0 
0 0 0 0 0 0 0 0 0 
0 0 0 0 0 0 0 0 0 
0 0 0 0 0 0 0 0 0 
0 0 0 0 0 0 0 0 0 
0 0 0 0 0 0 0 0 0 
0 0 0 0 0 0 0 0 0 
0 0 0 0 0 0 0 0 0 
0 0 0 0 0 0 6.14549e-13 0 0 
0 0 0 0 0 0 0 0 0 
0 0 0 0 0 0 0 0 0 
0 0 0 0 0 0 0 0 0 
0 0 0 0 0 0 0 0 0 
0 0 0 0 0 0 0 0 0 
0 0 0 0 0 0 0 0 0 
0 0 0 0 0 0 0 0 0 
0 0 0 0 0 0 0 0 0 
0 0 0 0 0 0 0 0 0 
0 0 0 0 0 0 0 0 0 
0 0 0 0 0 0 0 0 0 
0 0 0 0 0 0 0 0 0 
0 0 0 0 0 0 0 0 0 
0 0 0 0 0 0 0 0 0 
0 0 0 0 0 0 0 0 0 
0 0 0 0 0 0 0 0 0 
0 0 0 0 0 0 0 0 0 
0 0 0 0 0 0 0 0 0 
0 0 0 0 0 0 0 0 0 
0 0 0 0 0 0 0 0 0 
0 0 0 0 0 0 0 0 0 
0 0 0 0 0 0 0 0 0 
0 0 0 0 0 0 0 0 0 
0 0 0 0 0 0 0 0 0 
0 0 0 0 0 0 0 0 0 
0 0 0 0 0 0 0 0 0 
0 0 0 0 0 0 0 0 0 
0 0 0 0 0 0 0 0 0 
0 0 0 0 0 0 0 0 0 
0 0 0 0 0 0 0 0 0 
0 0 0 0 0 0 0 0 0 
0 0 0 0 0 0 0 0 0 
0 0 0 0 0 0 0 0 0 
0 0 0 0 0 0 0 0 0 
0 0 0 0 0 0 0 0 0 
0 0 0 0 0 0 0 0 0 
0 0 0 0 0 0 0 0 0 
0 0 0 0 0 0 0 0 0 
0 0 0 0 0 0 0 0 0 
0 0 0 0 0 0 0 0 0 
0 0 0 0 0 0 0 0 0 
0 0 0 0 0 0 0 0 0 
0 0 0 0 0 0 0 0 0 
0 0 0 0 0 0 0 0 0 
0 0 0 0 0 0 0 0 0 
0 0 0 0 0 0 0 0 0 
0 0 0 0 0 0 0 0 0 
3.81702e-13 0 0 0 0 0 0 0 0 
0 0 0 0 0 0 0 0 0 
0 0 0 0 0 0 0 0 0 
0 0 0 0 0 0 0 0 0 
0 0 0 0 0 0 0 0 0 
0 0 0 0 0 0 0 0 0 
0 0 0 0 0 0 0 0 0 
0 0 0 0 0 0 0 0 0 
0 0 0 0 0 0 0 0 0 
0 0 0 0 0 0 0 0 0 
0 0 0 0 0 0 0 0 0 
0 0 0 0 0 0 0 0 0 
0 0 0 0 0 0 0 0 0 
0 0 0 0 0 0 0 0 0 
0 0 0 0 0 0 0 0 0 
0 0 0 0 0 0 0 0 0 
0 0 0 0 0 0 0 0 0 
0 0 0 0 0 0 0 0 0 
0 0 0 0 0 0 0 0 0 
0 0 0 0 0 0 0 0 0 
0 0 0 0 0 0 0 0 0 
0 0 0 0 0 0 0 0 0 
0 0 0 0 0 0 0 0 0 
0 0 0 0 0 0 0 0 0 
0 0 0 0 0 0 0 0 0 
0 0 0 0 0 0 0 0 0 
0 0 0 0 0 0 0 0 0 
0 0 0 0 0 0 0 0 0 
0 0 0 0 0 0 0 0 0 
0 0 0 0 0 0 0 0 0 
0 0 0 0 0 0 0 0 0 
0 0 0 0 0 0 0 0 0 
0 0 0 0 0 0 0 0 0 
0 2.69546e-14 0 0 0 0 0 0 0 
0 0 0 0 0 0 0 0 0 
0 0 0 0 0 0 0 0 0 
0 0 0 0 0 0 0 0 0 
0 0 0 0 0 0 0 0 0 
0 0 0 0 0 0 0 0 0 
0 0 8.47144e-14 0 0 0 0 0 0 
0 0 0 0 0 0 0 0 0 
0 0 0 0 0 0 0 0 0 
0 0 0 0 0 0 0 0 0 
0 0 0 0 0 0 0 0 0 
0 0 0 0 0 0 0 0 0 
0 0 0 0 0 0 0 0 0 
0 0 0 0 0 0 0 0 0 
0 0 0 0 0 0 0 0 0 
0 0 0 0 0 0 0 0 0 
0 0 0 0 0 0 0 0 0 
0 0 0 0 0 0 0 0 0 
0 0 0 0 0 0 0 0 0 
0 0 0 0 0 0 0 0 0 
0 0 0 0 0 0 0 0 0 
0 0 0 0 0 0 0 0 0 
0 0 0 0 0 0 0 0 0 
0 0 0 0 0 0 0 0 0 
0 0 0 0 0 0 0 0 0 
0 0 0 0 0 0 0 0 0 
0 0 0 0 0 0 0 0 0 
0 0 0 0 0 0 0 0 0 
0 0 0 0 0 0 0 0 0 
0 0 0 0 0 0 0 0 0 
0 1.29675e-12 0 0 0 0 0 0 0 
0 0 0 0 0 0 0 0 0 
0 0 0 0 0 0 0 0 4.80844e-14 
0 0 0 0 0 0 0 0 0 
0 7.81454e-14 0 0 0 0 0 0 0 
0 0 0 0 0 0 0 0 0 
0 0 0 0 0 0 0 0 0 
0 0 0 0 0 0 0 0 0 
0 0 0 0 0 0 0 0 0 
0 0 0 0 0 0 0 0 0 
0 0 0 0 0 0 0 0 0 
0 0 0 0 0 0 0 0 0 
0 0 0 0 0 0 0 0 0 
0 0 0 0 0 0 0 0 0 
0 0 0 0 0 0 0 0 0 
0 0 0 0 0 0 0 0 0 
0 0 0 0 0 0 0 0 0 
0 0 0 0 0 0 0 0 0 
0 0 0 0 0 0 0 0 0 
0 0 0 0 0 0 0 0 0 
0 0 0 0 0 0 0 0 0 
0 0 0 0 0 0 0 0 0 
0 0 1.90009e-12 0 0 0 0 0 0 
0 0 0 0 0 0 0 0 0 
0 0 0 0 0 0 0 0 1.14924e-12 
0 0 0 0 0 0 0 0 0 
0 0 0 0 0 0 0 0 0 
0 0 0 0 0 0 0 0 0 
0 0 0 0 0 0 0 0 0 
0 0 0 0 0 0 0 0 0 
0 0 0 0 0 0 0 0 0 
0 0 0 0 0 0 0 0 0 
0 0 0 0 0 0 0 0 0 
0 0 0 0 0 0 0 0 0 
0 0 0 0 0 0 0 0 0 
0 0 0 0 0 0 0 0 0 
0 0 0 0 0 0 0 0 0 
0 0 0 0 0 0 0 0 0 
0 0 0 0 0 0 0 0 0 
0 0 0 0 0 0 0 0 0 
0 0 0 0 0 0 0 0 0 
0 0 0 0 0 0 0 0 0 
0 0 0 0 0 0 0 0 0 
0 0 0 0 0 0 0 0 0 
0 0 0 2.00233e-13 0 0 0 0 0 
0 0 0 0 0 0 0 0 0 
0 0 0 0 0 0 6.14204e-13 0 0 
0 0 0 0 0 0 0 0 0 
0 0 0 0 0 0 0 0 0 
0 0 0 0 0 0 0 0 0 
0 0 0 0 0 0 0 0 0 
0 6.28287e-13 0 0 0 0 0 0 0 
0 0 0 0 0 0 0 0 0 
0 0 0 0 0 0 0 0 0 
0 0 0 0 0 0 0 0 0 
0 0 0 0 0 0 0 0 0 
0 0 0 0 0 0 0 0 0 
0 0 0 0 0 0 0 0 0 
0 0 0 0 0 0 0 0 0 
0 0 0 0 0 0 0 0 0 
0 0 0 0 0 0 0 0 0 
0 0 0 0 0 0 0 0 0 
0 0 0 0 0 0 0 0 0 
0 0 0 0 0 0 0 0 0 
0 0 0 0 0 0 0 0 0 
0 0 0 0 0 0 0 0 0 
0 0 0 0 0 0 0 0 0 
0 0 0 0 0 0 0 0 0 
0 0 0 0 0 0 0 0 0 
0 0 0 0 0 0 0 0 0 
0 0 0 0 0 0 0 0 0 
0 0 2.69028e-12 0 0 0 0 0 0 
0 0 0 0 0 0 0 0 0 
0 0 0 0 0 0 0 0 0 
0 0 0 9.91922e-13 0 0 0 0 0 
0 0 0 0 0 0 0 0 0 
0 0 0 0 0 0 0 0 0 
0 0 0 0 0 0 0 0 0 
0 0 0 0 0 0 0 0 3.75098e-13 
0 0 0 0 0 0 0 0 0 
0 0 0 0 0 0 0 0 0 
0 0 0 0 0 0 0 0 0 
0 0 0 0 0 0 0 0 0 
0 0 0 0 0 0 0 0 0 
0 0 0 0 0 0 0 0 0 
7.60429e-14 0 0 0 0 0 0 0 0 
0 0 0 0 0 0 0 0 0 
0 0 0 0 3.90755e-12 0 0 0 0 
0 0 0 0 0 0 0 0 0 
0 0 0 0 0 0 0 0 0 
0 0 0 0 0 0 0 0 0 
0 0 0 0 0 0 0 0 0 
0 0 0 0 0 0 0 0 0 
0 0 0 0 0 0 1.30015e-12 0 0 
0 0 0 0 0 0 0 0 0 
0 0 0 0 0 0 0 0 0 
0 0 0 0 0 0 0 0 0 
0 0 0 0 0 0 0 0 0 
0 0 0 0 0 0 0 0 0 
0 0 0 0 0 0 0 0 0 
0 0 0 0 0 0 0 0 0 
0 0 0 0 0 0 0 0 0 
0 0 0 0 0 0 0 0 0 
0 0 0 0 0 0 0 0 0 
0 0 0 0 0 0 0 0 0 
0 0 0 0 0 0 0 0 0 
0 0 0 0 0 0 0 0 0 
0 2.41335e-12 0 0 0 0 0 0 0 
0 0 0 0 0 0 0 0 0 
0 0 0 0 0 0 0 0 0 
0 0 0 0 0 0 0 0 0 
0 0 0 0 0 0 0 0 0 
0 0 0 0 0 0 0 0 0 
0 0 0 0 0 0 0 0 0 
0 0 0 0 0 0 0 0 0 
0 0 0 0 0 0 0 0 0 
0 0 0 1.19758e-12 0 0 0 0 0 
0 0 0 0 0 0 0 0 0 
0 0 0 0 0 0 0 0 0 
0 0 0 0 0 0 0 0 0 
0 0 0 0 0 0 0 0 0 
0 0 0 0 0 0 0 0 0 
0 0 0 0 0 0 0 0 0 
0 0 0 0 0 0 0 0 0 
0 0 0 0 0 0 0 0 0 
0 0 0 0 0 0 0 0 0 
0 0 0 0 0 0 0 0 0 
0 0 0 0 0 0 0 0 0 
0 0 0 0 0 0 0 0 0 
0 0 0 0 0 0 0 0 0 
0 0 0 0 0 0 0 0 0 
0 0 0 0 0 0 0 0 0 
0 0 0 0 0 0 0 0 0 
0 0 0 0 0 0 0 0 0 
0 0 0 0 0 0 0 6.88218e-13 0 
0 0 0 0 0 0 0 0 0 
0 0 0 0 0 0 0 0 0 
0 0 0 5.75797e-12 0 0 0 0 0 
0 0 0 0 0 0 0 0 0 
0 0 0 0 0 0 0 0 0 
0 0 0 0 0 0 0 0 0 
0 0 0 0 0 0 0 0 0 
0 0 4.20218e-12 0 0 0 0 0 0 
0 0 0 0 0 0 0 0 0 
0 0 0 0 0 0 0 0 0 
0 0 0 0 0 0 0 0 0 
0 0 0 0 0 0 0 0 0 
0 0 0 0 0 0 0 0 0 
0 0 0 0 0 0 0 0 0 
0 0 0 0 0 0 0 0 0 
0 0 0 0 0 0 0 0 0 
0 0 0 0 0 0 0 0 0 
0 0 0 0 0 0 0 0 0 
0 0 0 0 0 0 0 0 0 
0 0 0 0 0 0 0 0 0 
0 0 0 0 0 0 0 0 0 
0 0 0 0 0 0 0 0 0 
0 0 0 0 0 0 0 0 0 
0 0 0 0 0 0 0 0 0 
0 0 0 0 0 0 0 0 0 
0 0 0 0 0 0 0 0 0 
0 0 0 0 0 1.01089e-12 0 0 0 
0 0 0 0 0 0 0 0 0 
0 0 0 0 0 0 0 0 0 
0 0 0 0 0 0 0 0 2.41788e-12 
0 0 0 0 0 0 0 0 0 
0 0 0 0 0 0 0 0 0 
0 0 0 0 0 0 0 7.40035e-12 0 
0 0 0 0 0 0 0 0 0 
0 0 0 2.70213e-12 0 0 0 0 0 
0 0 0 0 0 0 0 0 0 
0 0 0 0 0 0 0 0 0 
0 0 0 0 0 0 0 0 0 
0 0 0 0 0 0 0 0 0 
0 0 0 0 0 0 0 0 0 
0 0 0 0 0 0 0 0 0 
0 0 0 0 0 0 0 0 0 
0 0 0 0 0 0 0 0 0 
0 0 0 0 0 0 0 0 0 
0 0 0 0 0 0 0 0 0 
0 0 0 0 0 0 0 0 0 
0 0 0 0 0 0 0 0 0 
0 0 0 0 0 0 0 0 0 
0 0 0 0 0 0 0 0 0 
0 0 0 0 0 0 0 0 0 
0 0 0 0 0 0 0 0 0 
0 0 0 0 0 0 0 0 0 
0 0 0 0 0 0 0 0 0 
0 0 0 0 0 0 0 0 0 
0 0 0 0 6.54283e-13 0 0 0 0 
2.1264e-11 0 0 0 2.34333e-11 1.1143e-11 0 0 0 
0 0 0 0 0 0 0 0 0 
0 1.98324e-11 0 0 0 0 0 0 2.03898e-11 
0 0 0 0 0 0 0 0 0 
0 0 0 0 0 0 0 0 0 
0 0 0 0 0 0 0 0 0 
0 0 0 0 0 0 0 0 0 
0 0 0 0 0 0 0 0 0 
0 0 0 0 0 0 0 0 0 
0 0 0 0 0 0 0 0 0 
0 0 0 0 0 0 0 0 0 
0 0 0 0 0 0 0 0 0 
0 0 0 0 0 0 0 0 0 
0 0 0 0 0 0 0 0 0 
0 0 0 0 0 0 0 0 0 
0 6.05036e-12 0 0 3.65084e-13 0 0 0 0 
0 0 0 0 0 0 0 0 0 
0 0 0 0 0 0 0 0 0 
0 0 0 0 0 0 0 0 0 
0 0 0 0 0 0 0 0 0 
0 2.53348e-13 0 0 0 0 0 0 3.09181e-13 
0 0 0 0 0 0 0 0 0 
0 0 0 0 0 1.1798e-12 0 0 0 
0 0 0 0 0 0 0 0 0 
0 0 0 0 0 0 0 0 0 
0 0 0 0 0 0 0 0 0 
0 0 8.01021e-12 0 0 0 0 0 0 
0 0 0 0 0 1.52659e-11 1.69849e-11 0 0 
0 0 0 0 0 0 0 0 0 
0 0 0 0 0 0 0 0 0 
0 0 0 0 0 0 0 0 0 
1.48356e-11 0 0 0 0 2.52737e-11 0 0 0 
0 0 0 0 0 1.54207e-11 0 0 0 
0 0 0 0 0 0 0 0 0 
0 0 0 0 0 3.58462e-13 0 0 0 
0 0 0 0 0 0 0 0 0 
0 0 0 0 0 1.04882e-11 0 1.81666e-11 0 
0 0 0 0 0 0 0 0 0 
0 0 0 0 0 0 0 0 0 
0 0 0 0 0 0 0 0 0 
0 0 0 0 0 0 0 0 0 
0 0 0 0 0 0 0 0 0 
0 0 0 0 0 0 0 0 0 
0 0 0 0 0 0 0 2.46834e-12 0 
0 0 0 0 0 0 0 0 0 
0 0 0 0 0 0 0 0 0 
0 0 0 0 0 0 0 0 0 
0 0 0 0 0 0 0 0 0 
0 0 0 0 0 0 0 1.85284e-12 0 
0 0 0 0 0 0 0 0 0 
0 0 0 0 0 0 0 0 0 
0 0 0 0 0 0 0 0 0 
0 0 0 0 0 0 0 0 0 
0 0 0 0 0 0 0 0 0 
0 0 0 0 0 0 0 0 0 
0 0 0 0 0 1.6168e-11 0 2.36453e-11 0 
0 0 0 0 0 0 0 0 0 
0 0 0 0 2.71121e-11 0 3.20858e-11 0 0 
7.82873e-12 0 0 0 0 0 0 0 0 
2.82842e-11 0 0 1.07027e-12 0 0 0 0 0 
0 1.73265e-11 2.33963e-11 0 0 0 0 0 0 
0 0 0 0 0 0 0 0 0 
0 0 0 0 0 0 0 0 0 
0 0 0 0 0 0 4.6774e-12 0 0 
0 0 0 4.74854e-13 0 0 0 0 0 
0 0 0 0 0 0 0 0 0 
0 0 0 0 0 0 0 0 0 
0 0 0 0 0 0 0 0 0 
0 0 0 0 0 0 0 0 0 
0 0 0 0 0 0 0 0 0 
0 0 0 0 0 0 0 0 0 
0 0 1.07048e-11 0 0 0 0 0 0 
0 0 0 0 0 0 0 0 0 
0 0 0 0 0 0 0 0 0 
0 0 0 0 0 0 0 0 0 
0 0 0 0 0 0 0 0 0 
0 0 0 0 0 0 0 0 0 
0 0 0 0 0 0 0 0 0 
0 0 0 0 6.69215e-12 0 0 0 0 
0 0 0 0 0 0 0 0 0 
0 0 0 0 0 0 0 0 0 
0 0 1.0266e-11 1.38007e-11 0 0 0 9.85146e-12 0 
0 0 0 0 0 0 0 0 0 
0 2.30826e-11 0 0 0 0 0 0 0 
0 0 8.67743e-12 0 0 0 0 0 0 
0 0 0 0 0 0 0 0 0 
0 0 0 0 0 0 0 1.08827e-11 0 
0 0 0 0 3.00856e-12 0 0 0 0 
0 3.83567e-11 0 0 0 0 0 0 0 
1.09126e-11 0 0 0 0 0 0 0 0 
0 0 0 0 0 0 0 0 0 
4.51106e-12 0 0 0 0 0 0 7.30012e-12 0 
0 0 0 0 0 0 1.162e-11 0 0 
0 0 0 0 0 0 0 0 0 
0 0 0 0 0 0 0 0 0 
0 2.80377e-12 0 0 0 0 0 0 0 
0 0 0 0 0 0 0 0 0 
0 0 0 0 0 0 0 0 0 
0 0 0 0 0 0 0 0 5.93203e-12 
0 0 0 1.68407e-11 0 0 0 0 0 
0 0 0 0 0 0 0 0 0 
0 0 0 0 0 0 0 0 0 
0 0 0 0 0 0 0 0 1.3918e-13 
0 0 0 0 0 0 0 0 0 
0 0 0 0 0 0 0 0 0 
0 0 0 0 0 0 0 0 0 
0 0 0 0 0 0 0 0 0 
0 0 0 0 0 0 0 0 0 
0 0 2.12229e-12 0 0 0 0 0 0 
0 0 0 0 0 0 0 0 0 
0 0 9.78361e-12 1.38724e-11 0 1.69037e-11 0 0 0 
3.90043e-11 0 3.9701e-11 0 0 0 0 0 0 
2.14526e-11 0 0 0 0 0 0 0 0 
0 2.64222e-11 0 0 0 0 0 0 0 
0 0 0 0 0 0 0 0 0 
0 0 0 3.02128e-13 0 0 0 0 0 
4.2764e-11 0 0 4.66823e-12 0 9.68627e-12 0 0 0 
0 0 0 0 0 0 8.51605e-12 0 1.81526e-12 
0 0 0 0 0 0 0 0 0 
2.90061e-11 0 0 0 0 0 0 0 0 
0 0 0 0 0 0 0 0 0 
0 0 0 3.26692e-12 0 0 1.62278e-11 0 0 
0 0 0 0 0 0 0 0 0 
0 0 0 0 0 0 0 0 0 
0 0 0 0 0 0 0 0 0 
0 0 0 0 0 0 0 0 0 
0 0 0 2.62931e-12 0 0 0 0 0 
0 0 0 0 0 0 0 0 0 
6.30238e-12 0 0 9.64736e-13 0 0 0 0 0 
0 0 0 0 0 0 0 0 0 
0 0 0 0 0 0 0 0 0 
0 0 0 0 0 0 0 0 0 
0 0 0 0 0 0 0 0 0 
0 0 0 0 0 0 0 0 0 
0 0 0 0 0 0 0 0 0 
0 0 0 0 0 0 5.13328e-12 0 0 
2.70856e-11 0 3.7668e-11 0 0 0 0 0 0 
0 0 0 0 0 0 0 0 0 
0 0 0 0 2.1243e-11 0 3.05002e-11 0 0 
2.59995e-11 2.60016e-11 0 0 0 4.06294e-11 0 0 1.01811e-13 
0 0 0 0 0 0 0 0 0 
0 0 0 2.40953e-11 7.27033e-11 0 0 2.90174e-11 0 
4.83473e-11 0 0 0 0 0 0 0 0 
0 3.32905e-11 0 0 0 0 0 0 0 
0 0 0 0 1.32979e-11 0 0 0 1.92665e-11 
0 0 0 0 0 0 0 0 0 
0 0 0 0 0 0 0 0 0 
0 0 0 6.02528e-11 2.37227e-11 0 0 0 0 
0 0 0 0 8.99552e-12 0 0 0 0 
0 6.17216e-12 0 0 0 0 0 0 0 
0 0 1.58658e-11 0 0 0 0 0 0 
0 0 0 0 0 0 0 0 0 
0 0 0 0 0 0 0 0 0 
0 0 0 0 0 0 0 0 0 
0 0 0 0 0 0 0 0 3.1567e-11 
0 0 0 0 0 0 0 0 0 
0 0 0 0 0 0 0 0 0 
0 0 0 0 0 0 0 0 0 
0 0 0 0 0 0 0 0 0 
0 0 0 0 0 0 0 0 0 
0 0 0 0 0 0 0 0 0 
0 0 0 0 0 0 0 0 0 
0 0 0 0 1.88913e-13 0 0 0 0 
0 0 0 0 0 0 0 0 0 
2.95277e-11 0 0 0 5.31085e-11 0 0 0 0 
0 0 0 0 0 0 0 0 0 
0 0 1.05625e-11 2.49525e-11 0 0 0 0 0 
0 0 0 0 2.35388e-11 0 0 0 0 
0 0 0 0 0 0 0 0 5.20138e-12 
2.04058e-11 0 6.48437e-11 1.01047e-10 0 0 0 0 0 
0 0 0 0 0 0 0 0 0 
4.33584e-11 5.13886e-11 0 0 6.42715e-11 0 2.14409e-11 0 0 
4.26137e-11 0 0 0 0 0 0 0 0 
0 0 0 0 2.50022e-11 0 0 0 0 
0 9.87767e-12 0 0 0 0 0 0 0 
0 0 0 0 5.23293e-11 0 0 9.95385e-12 0 
7.83611e-12 0 0 2.12706e-11 0 0 0 0 0 
0 0 0 0 0 0 0 0 0 
0 8.8966e-12 5.03069e-12 0 0 0 0 0 0 
0 2.43864e-11 0 0 0 0 0 0 0 
0 0 0 0 0 0 0 0 0 
0 0 0 0 0 0 0 5.67216e-12 0 
0 1.4676e-11 0 0 0 0 0 0 0 
0 0 0 0 5.28727e-12 0 0 0 0 
0 0 0 0 0 0 0 0 0 
0 0 0 0 0 0 0 0 0 
0 0 0 0 0 0 0 0 0 
0 0 0 0 0 0 0 0 0 
0 0 0 0 0 0 0 0 0 
0 0 0 0 0 0 0 0 0 
0 0 0 0 0 1.11694e-11 0 0 0 
0 0 0 0 1.21189e-11 0 0 0 0 
0 0 4.60964e-11 0 0 0 0 5.08871e-11 0 
0 0 0 0 0 1.6964e-11 2.47717e-12 0 0 
0 0 0 0 8.46885e-11 0 2.12002e-10 0 0 
0 0 5.81189e-11 3.4092e-11 2.07521e-11 0 0 2.93141e-11 0 
0 0 0 0 0 1.26919e-11 0 0 7.58082e-11 
0 0 0 0 0 0 8.16662e-11 0 0 
0 0 0 0 7.92683e-11 0 0 5.96773e-11 0 
0 0 0 0 0 2.59151e-11 0 0 0 
3.9598e-11 0 0 0 0 0 1.84384e-11 0 0 
0 0 0 0 0 0 0 0 0 
0 0 0 0 8.50725e-11 0 1.38302e-10 0 0 
0 3.53314e-11 0 0 0 0 3.24142e-11 0 0 
6.66265e-11 0 5.0067e-11 0 0 2.5279e-11 0 0 0 
0 0 0 0 1.98052e-11 0 0 0 0 
0 0 2.46974e-11 3.06092e-11 0 0 0 0 0 
0 0 0 0 0 0 0 0 0 
0 0 0 0 0 0 0 0 0 
0 0 0 0 0 0 0 0 0 
0 0 2.17928e-11 3.08416e-12 0 0 0 3.38063e-11 0 
0 0 0 0 0 0 0 0 0 
0 0 0 0 0 0 0 0 0 
0 0 0 0 0 0 0 0 0 
0 0 0 0 0 0 0 0 0 
0 0 0 0 0 0 0 0 0 
0 0 0 0 0 0 0 0 0 
0 0 0 0 0 0 0 3.64605e-11 0 
0 0 0 0 9.07492e-12 5.2016e-12 0 0 0 
0 0 0 0 0 5.30454e-11 0 0 0 
0 2.50581e-10 0 0 6.7209e-11 0 0 0 0 
3.8689e-12 0 0 1.67079e-11 0 0 0 0 0 
0 0 0 2.04158e-10 2.42309e-08 0 0 0 4.80197e-11 
0 2.54772e-11 0 0 0 0 0 0 0 
0 0 0 0 2.52965e-10 0 0 0 3.98709e-11 
0 1.87696e-11 0 2.8624e-11 0 0 0 0 6.25629e-11 
0 0 5.46044e-12 0 0 0 0 0 0 
0 0 0 0 0 0 0 0 4.07028e-11 
0 0 0 0 1.57661e-11 0 0 0 0 
0 0 4.86292e-11 0 0 0 0 0 0 
0 0 6.57216e-11 7.24003e-11 0 0 0 0 0 
1.33058e-10 1.37865e-11 0 0 0 9.78106e-11 5.71978e-11 0 0 
0 0 0 0 0 0 0 0 0 
0 1.48299e-11 0 0 0 0 0 0 0 
1.93745e-11 0 0 0 0 2.53331e-11 0 0 0 
0 0 0 0 0 0 0 0 0 
0 0 0 0 0 0 0 1.35877e-11 0 
0 0 1.92949e-11 0 0 0 0 0 0 
0 0 0 6.84165e-11 0 3.51181e-11 0 0 0 
0 0 0 0 0 0 0 0 0 
0 0 0 0 0 0 0 0 0 
0 0 0 0 0 0 0 0 0 
0 0 0 0 0 0 0 0 0 
0 0 0 0 0 0 0 0 0 
0 0 0 0 0 0 0 0 0 
0 0 0 0 1.74227e-11 1.51263e-11 0 0 5.77402e-11 
0 0 0 4.57771e-11 7.82521e-12 2.72616e-11 0 0 0 
0 0 0 0 0 0 0 0 0 
0 3.68617e-11 0 2.56756e-12 0 2.64993e-11 7.01507e-11 0 7.6666e-12 
0 1.18989e-11 0 0 4.68566e-12 2.37273e-11 4.98516e-11 0 0 
0 0 0 0 0 0 5.14507e-11 0 2.77194e-11 
0 0 0 0 0 0 0 2.05478e-11 5.70554e-11 
2.7548e-11 1.3887e-10 2.5332e-08 0 0 0 0 0 0 
1.99691e-11 0 0 0 2.63016e-08 0 0 1.30286e-10 0 
0 4.15603e-12 5.50644e-11 0 2.30381e-11 1.02741e-10 1.39547e-10 0 0 
0 0 0 5.07963e-11 2.95367e-11 1.76668e-11 0 0 0 
0 0 0 2.0345e-11 0 0 0 0 0 
7.36375e-12 0 1.2108e-10 5.59294e-11 0 0 0 0 0 
0 0 0 2.50868e-08 0 0 0 2.5285e-11 0 
8.95858e-11 0 0 1.80422e-10 5.83373e-11 0 0 6.12235e-11 7.83453e-11 
0 0 3.32734e-11 0 0 3.44427e-11 0 0 0 
0 4.44505e-11 0 0 2.11064e-11 0 0 0 0 
0 0 0 0 0 0 0 2.99942e-11 0 
0 0 0 0 0 0 0 0 0 
0 0 0 0 0 0 0 0 0 
0 0 0 0 0 0 0 0 7.93985e-12 
0 0 0 0 0 0 0 0 0 
0 0 1.56124e-11 0 0 0 0 0 0 
0 0 0 0 0 0 0 0 0 
0 0 0 0 0 0 0 0 0 
0 1.11132e-12 0 0 0 0 0 0 0 
0 0 0 0 0 0 0 0 0 
0 0 0 0 0 0 0 0 0 
1.19078e-11 0 0 0 0 7.8766e-11 8.68843e-11 0 0 
0 2.09602e-11 0 0 0 0 0 0 0 
0 0 0 0 0 1.46956e-11 0 0 0 
0 0 0 0 0 0 3.83339e-11 0 0 
0 0 0 0 1.12183e-11 0 8.26464e-11 8.70998e-11 0 
0 0 1.05326e-10 7.80461e-11 0 0 0 0 0 
0 0 0 0 1.5231e-12 4.55891e-11 0 0 0 
1.33915e-10 0 0 0 1.4371e-10 0 0 0 0 
2.84734e-11 0 1.8133e-10 0 0 0 0 0 6.04275e-11 
2.54557e-11 0 7.44148e-11 2.10149e-11 0 0 2.45409e-08 0 0 
3.48542e-11 0 0 0 0 1.51715e-11 2.30143e-11 0 0 
0 0 4.98172e-11 0 0 8.71373e-11 7.238e-11 0 0 
1.03965e-10 7.99877e-11 3.12906e-11 0 0 0 0 0 1.40878e-10 
0 0 0 3.38155e-11 0 1.80998e-10 0 0 0 
1.15529e-10 0 0 0 5.33029e-11 6.55229e-11 0 1.02192e-11 0 
0 0 9.7272e-12 2.61995e-11 0 0 0 0 3.00437e-12 
0 0 0 0 0 2.92256e-11 0 8.302e-11 0 
0 0 5.7005e-11 0 3.09382e-11 0 0 0 0 
0 0 0 0 0 0 0 0 0 
0 1.05987e-11 0 0 0 0 0 2.41324e-11 0 
0 0 1.25721e-11 9.6442e-11 1.18849e-11 0 0 0 0 
0 5.2718e-11 0 3.27375e-11 3.0283e-11 0 0 0 1.67062e-11 
0 2.35089e-11 0 0 0 0 0 0 0 
0 0 0 0 0 0 0 0 0 
0 0 0 0 0 0 0 0 0 
0 0 0 0 0 0 0 0 0 
0 0 0 0 0 0 0 0 0 
0 0 0 0 0 0 0 0 0 
0 5.28327e-13 0 6.02851e-11 0 0 0 0 0 
0 0 0 4.49238e-11 5.16298e-11 0 0 0 0 
0 2.61636e-08 0 2.49232e-10 0 0 5.72821e-12 0 0 
0 1.26403e-10 0 0 0 0 0 0 0 
3.17112e-11 0 0 0 0 2.78189e-11 6.69187e-11 0 0 
0 0 0 0 1.06261e-11 0 0 0 0 
0 0 0 0 0 0 5.00055e-11 0 0 
0 0 8.90932e-11 0 3.15788e-11 0 0 0 0 
0 0 0 0 0 0 5.33364e-11 1.18288e-11 0 
0 1.25284e-10 0 0 0 0 3.70955e-10 0 0 
0 0 0 0 0 0 0 1.61531e-11 0 
0 0 0 0 0 2.24116e-10 0 0 5.71512e-11 
0 0 0 4.04162e-11 5.38557e-11 3.15513e-11 0 0 0 
1.35956e-10 0 0 0 0 0 2.71571e-08 2.64551e-10 0 
0 0 1.27915e-10 0 0 9.69699e-11 0 0 0 
7.99651e-12 0 0 0 0 1.15748e-11 0 0 0 
0 5.57498e-11 1.27812e-10 0 0 0 0 3.79562e-11 6.2784e-11 
0 0 0 0 0 0 0 8.6061e-12 0 
0 0 0 0 5.24806e-12 0 0 0 0 
0 0 0 0 3.47227e-11 0 0 0 0 
2.07919e-13 0 7.19693e-11 0 0 0 0 0 0 
0 0 0 5.42824e-11 0 0 0 0 0 
0 0 6.90382e-12 0 0 5.54464e-12 0 0 0 
0 0 0 0 0 0 0 0 0 
0 0 0 0 0 0 0 0 0 
0 0 0 0 0 0 0 0 0 
0 0 0 0 0 0 0 0 0 
0 0 1.09216e-11 0 0 0 0 4.56359e-11 0 
0 6.79669e-11 0 0 2.46174e-08 0 3.88832e-11 0 0 
3.96236e-11 0 3.28575e-11 0 0 0 0 0 0 
3.68469e-10 0 0 0 0 1.89968e-11 1.4595e-10 0 0 
1.55581e-10 0 0 0 8.64199e-11 6.36379e-12 0 0 0 
3.64522e-12 0 4.58357e-11 1.24303e-11 0 0 3.75012e-11 0 0 
0 0 0 2.00036e-11 0 2.22527e-11 0 2.17991e-11 0 
0 0 0 0 0 2.51931e-10 0 0 0 
0 3.05593e-11 6.76362e-11 1.00154e-10 0 0 1.68959e-10 0 0 
3.80102e-11 0 0 0 0 0 1.02288e-10 1.03388e-10 0 
1.40578e-10 0 1.64711e-10 0 0 0 0 6.34103e-11 0 
0 0 2.10285e-11 0 0 0 0 0 0 
4.53357e-11 0 0 2.43657e-08 1.64894e-10 0 1.09238e-10 0 0 
0 0 0 0 0 1.07143e-10 0 0 0 
2.47544e-12 1.02095e-11 0 0 0 1.86707e-10 0 0 2.01791e-10 
0 0 0 0 0 0 7.86536e-11 0 3.58599e-11 
0 0 0 0 0 0 0 0 1.2355e-10 
0 0 0 6.45952e-11 1.61163e-10 0 0 0 0 
0 0 0 0 0 0 0 1.0114e-11 0 
0 0 0 0 0 0 0 0 6.74758e-12 
0 0 0 0 0 0 1.25448e-10 0 8.69747e-11 
0 0 0 2.48203e-08 0 0 0 0 6.64386e-11 
0 0 3.69539e-11 0 2.40719e-11 0 8.29548e-12 0 0 
0 1.20245e-11 0 0 0 0 0 0 0 
0 0 0 0 0 0 0 0 0 
0 0 0 0 0 0 0 0 0 
0 0 0 0 0 0 0 0 0 
0 0 0 0 0 0 0 0 0 
0 0 0 0 0 0 0 0 1.04905e-11 
0 1.83865e-10 8.87089e-11 1.25422e-10 3.50093e-11 0 0 0 0 
0 0 0 0 0 0 0 3.10847e-12 0 
2.2118e-10 0 0 1.0882e-11 0 1.13165e-10 1.51691e-10 5.10934e-11 0 
0 0 0 0 0 0 0 0 0 
2.82908e-11 0 0 0 0 3.91489e-11 0 7.56969e-11 0 
0 0 0 0 1.99142e-11 0 0 2.56206e-11 0 
6.61241e-11 0 0 0 1.5874e-10 0 4.73431e-11 0 0 
2.93904e-10 0 0 3.0935e-10 0 0 0 0 0 
0 0 0 4.34026e-11 0 6.58161e-11 0 0 2.37642e-10 
0 0 0 0 4.98464e-11 4.10357e-12 0 0 0 
0 0 0 0 0 0 0 0 2.14829e-11 
0 0 0 0 1.03557e-10 0 0 4.86806e-11 0 
7.04715e-11 0 0 3.00361e-11 0 0 0 0 1.03806e-10 
0 0 0 0 1.6123e-10 2.86878e-10 2.69486e-08 0 0 
0 7.86958e-12 0 0 0 6.91811e-11 0 0 0 
0 9.02093e-12 0 2.52561e-12 7.47162e-11 0 1.77138e-10 8.00735e-11 0 
0 0 0 0 0 5.01374e-11 0 0 0 
0 0 0 0 0 0 0 0 0 
0 0 0 0 0 0 1.17523e-11 0 0 
0 0 0 2.90222e-11 5.58745e-11 0 0 1.57649e-11 3.46462e-11 
0 0 0 0 0 5.23281e-12 0 6.49333e-11 4.28382e-11 
0 0 0 0 0 1.09432e-11 0 0 0 
0 1.13885e-11 0 0 0 0 0 0 0 
0 0 0 0 0 0 0 0 0 
0 0 0 0 0 5.63802e-14 0 0 0 
0 0 0 0 0 0 0 0 0 
0 0 0 0 0 0 0 0 0 
0 0 0 0 0 0 6.48857e-11 1.80017e-11 0 
1.13315e-10 2.09628e-11 2.60235e-11 0 0 0 1.62967e-12 0 1.94594e-10 
0 0 2.86459e-11 0 0 2.86966e-10 0 0 2.16137e-10 
0 0 0 0 2.66455e-08 0 0 4.49497e-11 0 
4.51906e-11 0 0 0 3.10398e-11 0 0 0 0 
0 0 0 0 0 0 0 0 0 
0 0 2.65782e-12 0 0 6.90779e-11 7.12302e-11 2.19351e-11 0 
0 0 0 0 0 0 0 0 0 
0 0 0 0 0 0 0 0 1.26373e-10 
0 1.40979e-11 1.85226e-10 1.05216e-10 5.67548e-12 0 2.19957e-11 0 0 
0 0 0 0 0 1.47459e-11 0 0 4.98251e-12 
0 0 0 1.01193e-10 0 0 0 0 2.93062e-11 
3.18351e-11 0 1.53287e-10 0 0 1.10958e-11 0 0 0 
0 8.41914e-11 0 0 0 0 0 1.25677e-10 0 
0 0 0 2.42262e-10 0 0 0 0 0 
0 0 0 0 0 5.49374e-11 0 0 0 
0 0 0 3.58404e-11 0 0 0 0 0 
0 0 0 5.31726e-11 6.10549e-11 1.0011e-10 9.24316e-11 0 0 
0 0 0 0 0 0 0 0 0 
0 0 0 3.01062e-11 0 0 0 0 0 
0 0 0 4.1906e-11 0 1.34675e-10 4.87484e-11 0 0 
0 1.94813e-10 0 0 0 0 0 0 0 
0 0 0 0 3.96994e-11 0 0 0 0 
0 0 0 0 0 0 0 0 0 
0 0 0 0 0 0 0 0 0 
0 0 0 0 0 0 0 0 0 
0 0 0 0 0 0 0 0 0 
0 0 0 0 0 0 0 0 0 
0 0 5.35476e-11 0 0 5.30262e-11 0 2.57243e-11 1.56429e-11 
0 0 0 0 0 0 0 0 0 
0 1.43622e-10 0 0 0 0 0 0 0 
0 7.05409e-11 2.60706e-10 0 0 9.18548e-11 0 0 0 
4.17893e-11 0 0 1.20369e-11 0 0 0 0 1.62979e-11 
0 0 0 0 0 0 3.33239e-11 0 0 
0 0 0 7.82895e-11 7.25364e-11 0 0 0 0 
1.77394e-10 0 0 3.00718e-08 0 0 0 3.45534e-08 0 
0 0 0 1.6513e-10 0 1.12279e-10 0 6.93775e-11 1.76849e-10 
1.61712e-11 2.50835e-11 8.11239e-11 0 0 0 0 6.01785e-11 0 
5.02612e-11 0 0 0 0 0 1.45966e-11 0 0 
0 0 0 0 0 0 0 0 0 
1.99319e-11 0 7.74343e-13 0 0 0 0 0 0 
0 0 0 1.86493e-11 0 0 0 6.30891e-11 0 
8.12778e-11 0 0 0 0 0 0 9.05897e-11 3.98038e-11 
0 0 0 0 0 0 1.60854e-10 0 0 
0 0 0 0 0 0 0 0 0 
0 0 0 0 0 7.37763e-11 6.73186e-11 1.5825e-12 0 
0 0 0 0 0 0 0 0 0 
0 3.84398e-11 0 6.38533e-11 0 0 0 0 0 
0 0 9.57547e-11 0 0 0 0 0 0 
0 0 4.98149e-11 6.73983e-11 2.19137e-11 1.05261e-10 0 5.73127e-11 1.39766e-10 
0 0 0 0 0 0 0 0 0 
0 0 0 0 0 0 0 0 0 
0 0 0 0 0 0 0 0 0 
0 0 0 0 0 0 0 0 0 
0 0 0 0 0 0 0 0 0 
0 0 0 0 0 0 0 0 0 
0 4.03403e-11 0 9.35382e-11 0 6.31151e-11 0 0 0 
0 0 0 1.11543e-10 4.53543e-11 4.7622e-11 2.45012e-11 1.01389e-10 0 
0 0 0 0 0 0 0 0 0 
0 0 0 0 0 1.01523e-11 0 0 0 
0 0 0 0 0 0 1.05744e-10 0 0 
0 0 8.2023e-11 0 0 0 8.30006e-12 0 0 
0 0 0 0 0 7.7477e-11 0 1.82752e-10 0 
0 0 2.52939e-10 0 0 0 0 0 0 
0 0 0 0 2.61438e-08 0 0 0 0 
0 0 0 0 0 0 0 0 0 
0 0 0 0 0 0 0 1.94407e-12 1.6487e-11 
0 0 0 0 2.25533e-11 0 0 0 6.56828e-11 
0 4.19477e-12 0 0 1.3954e-10 0 0 0 0 
5.78034e-11 0 0 0 0 0 1.1121e-10 0 8.06866e-11 
6.72857e-11 9.72682e-11 0 0 0 0 1.18114e-10 0 0 
1.07767e-10 2.48381e-08 0 0 0 0 5.08908e-11 0 0 
0 1.94247e-10 0 0 0 0 2.81927e-08 0 0 
6.7865e-11 0 0 0 0 0 0 0 0 
0 0 0 0 0 0 0 0 0 
0 5.16177e-11 0 0 0 1.06244e-10 5.73445e-11 0 0 
1.06714e-11 0 0 0 0 0 0 0 0 
0 0 0 0 0 0 0 0 7.63862e-11 
4.31763e-11 0 0 0 0 0 0 0 0 
0 0 0 0 0 0 0 0 0 
0 0 0 0 0 0 0 0 0 
0 0 0 0 0 0 0 0 0 
0 0 0 0 0 0 0 0 0 
0 0 0 0 0 0 2.05804e-11 0 0 
0 6.36166e-11 0 0 0 0 0 9.90592e-11 0 
4.0874e-10 0 0 0 3.43294e-11 8.03931e-11 0 0 0 
0 3.83163e-08 3.85218e-08 0 0 0 2.90986e-11 0 0 
0 0 6.47897e-11 4.6529e-12 0 0 0 0 0 
0 0 0 0 0 4.43151e-11 0 0 0 
0 0 2.58447e-11 0 0 0 0 0 0 
0 1.81991e-11 0 0 9.35732e-12 0 0 0 0 
0 0 0 0 3.31218e-08 0 0 2.24346e-10 0 
2.72209e-10 0 2.75687e-10 0 0 1.06394e-11 0 0 5.21462e-12 
0 0 0 0 0 5.3363e-11 0 0 0 
0 0 0 0 0 0 0 0 0 
0 8.09768e-11 0 0 0 0 0 0 0 
0 8.89257e-12 0 0 0 0 0 0 0 
0 0 0 1.21622e-10 0 0 0 1.6786e-10 0 
0 1.05868e-11 0 0 0 0 0 0 0 
0 7.48845e-11 4.32935e-12 0 1.02748e-10 5.66469e-11 6.58586e-13 2.21027e-10 0 
0 0 0 0 9.8345e-11 1.75777e-13 0 0 2.38532e-11 
0 0 0 0 0 0 0 0 0 
0 0 0 0 1.34749e-11 1.56091e-11 0 0 1.46786e-11 
0 0 0 0 2.63421e-10 0 0 1.4762e-10 0 
4.39921e-11 1.25542e-10 0 0 0 1.17101e-10 2.31095e-10 0 0 
0 0 0 0 0 0 0 0 1.82975e-11 
0 0 0 0 1.22806e-11 7.00821e-12 0 0 0 
0 0 0 0 0 0 0 0 0 
0 0 0 0 0 0 0 0 0 
0 0 0 0 0 0 0 0 0 
0 0 0 0 0 0 0 0 0 
0 0 0 0 2.12881e-11 0 0 0 0 
0 0 6.85065e-11 0 0 0 0 0 0 
0 1.5455e-11 0 0 4.65062e-11 0 8.4393e-11 0 0 
0 0 2.3701e-10 2.38565e-10 0 9.19196e-11 1.08401e-10 0 0 
0 0 3.6198e-11 0 0 0 0 0 0 
5.37073e-12 0 0 9.15225e-11 0 1.19532e-10 0 0 0 
0 0 0 2.60133e-12 0 0 0 0 0 
0 0 0 0 0 0 5.78707e-12 0 2.12827e-11 
0 5.0155e-10 0 0 0 5.9511e-11 0 2.40519e-11 0 
5.40936e-11 0 0 0 0 0 8.54196e-11 0 0 
0 9.54729e-11 0 0 5.40509e-11 0 0 4.58897e-11 0 
0 0 0 0 0 2.76784e-11 0 0 0 
0 0 0 0 5.91628e-12 0 0 0 0 
0 0 0 0 0 0 0 0 0 
0 3.62779e-11 5.6949e-11 0 0 0 0 0 0 
3.77776e-11 0 0 8.45884e-11 0 0 0 0 0 
0 0 0 0 0 2.74412e-11 0 0 0 
5.9976e-11 0 0 2.24354e-10 0 0 0 4.18216e-11 0 
1.53704e-12 0 0 0 0 0 0 0 0 
0 0 0 0 0 0 0 0 0 
1.9728e-10 1.75121e-10 2.66767e-08 0 0 2.01312e-10 0 0 0 
0 0 5.77536e-11 0 0 2.31032e-11 0 0 0 
0 0 0 2.17845e-11 0 0 0 0 0 
0 0 0 0 0 0 0 0 0 
0 0 0 0 0 0 0 0 0 
0 0 0 0 0 0 0 0 0 
0 0 0 0 0 0 0 0 0 
0 0 0 0 0 0 0 0 0 
0 0 0 0 0 0 0 5.54198e-11 0 
0 2.14992e-11 0 0 0 2.66636e-08 0 3.97437e-10 1.17361e-10 
0 0 0 0 2.903e-10 2.98534e-10 0 0 0 
5.17965e-11 2.0306e-10 0 0 1.15487e-10 0 0 0 0 
0 0 0 0 0 0 0 0 0 
0 0 0 3.07046e-11 1.00878e-10 9.77315e-11 0 3.07791e-10 0 
0 2.09232e-11 0 0 0 0 6.47088e-11 0 0 
0 0 0 1.13103e-10 2.37288e-11 0 3.77199e-11 0 0 
0 0 4.17364e-11 0 1.04506e-10 9.9431e-12 1.03596e-11 0 0 
1.00234e-10 0 8.55042e-12 1.25689e-11 0 0 0 6.26392e-11 0 
0 0 0 0 0 0 0 0 0 
0 0 0 0 3.01435e-11 0 4.45971e-11 0 0 
0 0 0 0 0 0 0 0 0 
0 0 0 0 0 0 4.98243e-11 0 0 
0 0 1.29427e-10 0 0 0 0 8.09817e-12 0 
0 0 0 0 0 5.7999e-11 0 0 1.10953e-11 
0 0 0 0 0 0 0 0 1.98535e-10 
2.81707e-10 0 0 0 1.00626e-10 0 0 2.48723e-11 0 
2.21666e-11 0 0 0 0 0 0 0 0 
0 0 0 0 0 0 0 0 0 
1.18179e-10 8.53966e-11 7.02256e-11 0 0 0 0 0 0 
0 0 0 2.59756e-11 4.45058e-11 1.17389e-10 0 3.0941e-08 0 
0 0 0 0 0 0 0 0 0 
0 0 0 0 0 0 0 0 0 
0 0 0 0 0 0 0 0 0 
0 0 0 0 0 0 0 0 0 
0 0 0 0 0 0 0 0 0 
0 0 0 0 0 0 0 0 0 
0 0 0 0 0 0 0 2.54407e-10 4.46765e-11 
0 0 0 0 2.90647e-10 1.63699e-10 0 6.39559e-12 1.0079e-10 
0 3.73027e-11 0 1.94813e-10 0 0 0 0 0 
3.49329e-11 0 0 0 0 0 0 0 0 
0 0 0 0 0 0 0 1.30872e-10 0 
0 1.34543e-10 0 0 0 0 6.31327e-11 0 2.8836e-11 
1.36979e-11 0 0 6.03685e-11 1.62119e-11 3.96832e-11 0 0 0 
0 1.22586e-11 0 0 0 4.44682e-11 2.2312e-10 2.57455e-11 0 
0 0 0 2.63183e-11 0 0 0 2.07328e-11 0 
0 0 0 0 0 0 0 0 0 
0 5.83107e-11 1.38939e-10 0 0 0 0 0 1.81237e-11 
1.2817e-11 0 6.03822e-11 0 0 0 0 0 0 
1.28251e-10 0 0 0 0 0 0 0 9.93592e-11 
0 0 0 0 0 0 0 0 0 
0 0 0 0 0 0 3.65755e-11 7.75368e-11 0 
1.49653e-11 1.1612e-10 0 0 0 0 0 0 0 
1.03622e-10 0 0 0 0 0 0 0 0 
0 2.63566e-08 0 0 0 0 0 5.24852e-11 0 
0 7.55146e-13 0 1.79492e-13 0 0 0 0 0 
2.29749e-11 0 0 0 1.25606e-10 0 0 2.3409e-12 3.28332e-10 
0 0 0 1.50586e-10 0 0 0 0 0 
0 0 7.58709e-11 0 0 0 0 0 0 
0 0 0 4.91811e-11 0 0 0 0 0 
0 0 0 0 0 0 0 0 0 
0 0 0 0 0 0 0 0 0 
0 0 0 0 0 0 0 0 0 
0 0 0 0 0 0 0 0 0 
0 0 0 0 0 1.39859e-11 0 0 0 
0 0 0 0 0 0 1.41551e-10 0 0 
0 7.86191e-11 8.30016e-11 0 0 0 0 0 0 
4.52891e-13 0 0 1.66488e-13 0 0 0 8.22795e-12 0 