# vtk DataFile Version 5.1
vtk output
ASCII
DATASET STRUCTURED_POINTS
DIMENSIONS 100 100 1
SPACING 1 1 1
ORIGIN 0 0 0
POINT_DATA 10000
FIELD FieldData 6
feature_1 1 10000 float
0 0 0 0 0 0 0 0 0 
0 0 0 0 0 0 0 0 0 
0 0 0 0 0 0 0 0 0 
0 0 0 0 0 0 0 0 0 
0 0 0 0 0 0 0 0 0 
0 0 0 0 0 0 0 0 0 
0 0 0 0 0 0 0 0 0 
0 0 0 0 0 0 0 0 0 
0 0 0 0 0 0 0 0 0 
0 0 0 0 0 0 0 0 0 
0 0 0 0 0 0 0 0 0 
0 0 0 0 0 0 0 0 0 
0 0 0 0 0 0 0 0 0 
0 0 0 0 0 0 0 0 0 
0 0 0 0 0 0 0 0 0 
0 0 0 0 0 0 0 0 0 
0 0 0 0 0 0 0 0 0 
0 0 0 0 0 0 0 0 0 
0 0 0 0 0 0 0 0 0 
0 0 0 0 0 1.2831e-11 0 0 0 
0 0 0 0 0 0 0 0 0 
0 0 0 0 0 0 0 0 0 
0 0 0 0 0 0 0 0 0 
0 0 0 0 0 0 0 0 0 
0 0 0 0 0 0 0 0 0 
0 0 0 0 0 0 0 0 0 
0 0 0 0 0 0 0 0 0 
0 0 0 0 0 0 0 0 0 
0 0 0 0 0 0 0 0 0 
0 0 0 0 0 0 0 0 0 
0 0 0 0 0 0 0 0 0 
0 0 0 0 0 0 0 0 0 
0 0 0 0 0 0 0 0 0 
0 0 0 0 0 0 0 0 0 
0 0 0 0 0 0 0 0 0 
0 0 0 0 0 0 0 0 0 
0 0 0 0 0 0 0 0 0 
0 0 0 0 0 0 0 0 0 
0 0 0 0 0 0 0 0 0 
0 0 0 0 0 0 0 0 0 
0 0 0 0 0 0 0 0 0 
0 0 0 0 0 0 0 0 0 
0 0 0 0 0 0 0 0 0 
0 0 0 0 0 0 0 0 0 
0 0 0 0 0 0 0 0 0 
0 0 0 0 0 0 0 0 0 
0 0 0 0 0 0 0 0 0 
0 0 0 0 0 0 0 0 0 
0 0 0 0 0 0 0 0 0 
0 0 0 0 0 0 0 0 0 
0 0 0 0 0 0 0 0 0 
0 0 0 0 0 0 0 0 0 
0 0 0 0 0 0 0 0 0 
0 0 0 0 0 0 0 0 0 
0 0 0 0 0 0 0 0 0 
0 0 0 0 0 0 0 0 0 
0 0 0 0 0 0 0 0 0 
0 0 0 0 0 0 0 0 0 
0 0 0 0 0 0 0 0 0 
0 0 0 0 0 0 0 0 0 
0 0 0 0 0 0 0 0 0 
0 0 0 0 0 0 0 0 0 
0 0 0 0 0 0 0 0 0 
0 0 0 0 0 0 0 0 0 
0 0 0 0 0 0 0 0 0 
0 0 0 0 0 0 0 0 0 
0 0 0 0 0 0 0 0 0 
0 0 0 0 0 0 0 0 0 
0 0 0 0 0 0 0 0 0 
0 0 0 0 0 0 0 0 0 
0 0 0 0 0 0 0 0 0 
0 0 0 0 0 0 0 0 0 
0 0 0 0 0 0 0 0 0 
0 0 0 0 0 0 0 0 0 
0 0 0 0 0 0 0 0 0 
0 0 0 0 0 0 0 0 0 
0 0 0 0 0 0 0 0 0 
0 0 0 0 0 0 0 0 0 
0 0 0 0 0 0 0 0 0 
0 0 0 0 0 0 0 0 0 
0 0 0 0 0 0 0 0 0 
0 0 0 0 0 0 0 0 0 
0 0 0 0 0 0 0 0 0 
0 0 0 0 0 0 0 0 0 
0 0 0 0 0 0 0 0 0 
0 0 0 0 0 0 0 0 0 
0 0 0 0 0 0 0 0 0 
0 0 0 0 0 0 0 0 0 
0 0 0 0 0 0 0 0 0 
0 0 0 0 0 0 0 0 0 
0 0 0 0 0 0 0 0 0 
0 0 0 0 0 0 0 0 0 
0 0 0 0 0 0 0 0 0 
0 0 0 0 0 0 0 0 0 
0 0 0 0 0 0 0 0 0 
0 0 0 0 0 0 0 0 0 
0 0 0 0 0 0 0 0 0 
0 0 0 0 0 0 0 0 0 
0 0 0 0 0 0 0 0 0 
0 0 0 0 0 0 0 0 0 
0 0 0 0 0 0 0 0 0 
0 0 0 0 0 0 0 0 0 
0 0 0 0 0 0 0 0 0 
0 0 0 0 0 0 0 0 0 
0 0 0 0 0 0 0 0 0 
0 0 0 0 0 0 0 0 0 
0 0 0 0 0 0 0 0 0 
0 0 0 0 0 0 0 0 0 
0 0 0 0 0 0 0 0 0 
0 0 0 0 0 0 0 0 0 
0 0 0 0 0 0 0 0 0 
0 0 0 0 0 0 0 0 0 
0 0 0 6.32899e-12 0 0 0 0 0 
0 0 0 0 0 0 0 0 0 
0 0 0 0 0 0 0 0 0 
0 0 0 0 0 0 0 0 0 
0 1.66807e-09 0 0 0 0 0 0 0 
0 0 0 0 0 0 0 2.33173e-09 4.54589e-10 
0 0 0 0 0 0 0 0 0 
0 0 0 0 0 0 0 0 0 
0 0 0 0 0 0 0 0 0 
0 0 0 0 0 0 0 0 0 
0 0 0 0 0 0 0 0 0 
0 0 0 0 0 0 0 0 0 
0 0 0 0 0 0 0 0 0 
0 0 0 0 0 0 0 0 0 
0 0 0 0 0 0 0 0 1.05437e-09 
0 0 0 0 0 0 0 0 0 
0 0 0 0 0 0 0 0 0 
0 0 0 0 0 0 0 0 0 
0 0 0 0 0 0 0 0 0 
0 0 0 0 0 0 0 0 0 
0 0 0 0 0 0 0 0 0 
0 0 0 0 0 0 0 0 0 
0 0 0 0 0 0 0 0 0 
0 0 0 0 0 0 0 0 0 
0 0 0 0 0 0 0 0 0 
0 0 0 0 0 0 0 0 0 
0 0 0 7.92694e-07 6.06904e-09 2.44961e-09 0 1.0465e-09 0 
0 0 0 0 0 0 1.97073e-09 1.09686e-09 6.44995e-07 
1.6953e-09 0 0 0 0 0 0 0 0 
0 0 0 0 0 0 0 0 0 
0 0 0 0 0 0 0 0 0 
0 0 0 0 0 0 0 0 0 
0 0 0 0 0 0 0 0 0 
0 0 0 0 0 0 0 0 0 
0 0 0 0 0 0 0 0 0 
0 0 0 0 4.46004e-10 0 0 0 0 
0 0 0 1.3388e-09 0 0 0 0 0 
3.12746e-09 0 0 8.33404e-07 0 6.52161e-09 0 0 0 
8.04387e-10 0 0 0 0 0 0 0 0 
0 0 1.73941e-09 1.22104e-09 8.43207e-10 0 0 0 0 
0 0 0 0 0 0 0 0 0 
0 1.677e-09 0 0 0 0 0 0 0 
0 0 0 0 0 0 0 0 0 
0 0 0 0 0 0 0 0 0 
0 0 0 0 0 0 0 0 0 
0 0 0 0 0 0 0 0 0 
0 0 0 0 4.46936e-09 6.4689e-07 0 0 0 
0 0 0 1.7681e-09 0 7.58383e-09 0 0 1.29369e-09 
0 0 0 0 0 0 0 0 1.51396e-09 
0 0 0 0 0 0 0 0 0 
0 0 0 0 0 0 0 0 0 
0 0 0 0 0 0 1.11046e-09 0 0 
6.46204e-07 1.4231e-09 0 8.61001e-10 0 0 0 0 0 
0 0 0 0 0 0 0 0 0 
0 0 0 0 0 0 0 0 0 
0 0 0 0 0 0 0 0 0 
0 0 0 0 0 0 0 0 0 
0 0 0 0 0 0 0 0 0 
0 0 0 0 9.89354e-10 3.77772e-09 0 4.36298e-09 2.6481e-09 
0 0 0 0 0 0 7.98632e-07 0 0 
9.2032e-10 0 0 0 0 0 0 0 0 
0 0 1.34172e-09 0 0 0 0 0 0 
0 0 0 0 9.84983e-10 0 0 0 0 
0 4.39353e-11 0 0 4.92282e-10 0 0 0 0 
0 0 0 0 0 0 0 0 0 
0 0 0 0 0 0 0 0 0 
0 0 0 0 0 0 0 0 0 
0 0 0 0 0 0 0 0 0 
0 0 0 0 0 0 1.93473e-09 0 0 
7.44938e-10 0 0 3.95833e-10 0 0 2.35541e-09 0 0 
0 0 8.73552e-10 0 0 7.41713e-07 1.19479e-08 0 0 
0 0 6.89628e-07 0 8.03109e-10 9.93707e-10 0 0 0 
0 0 0 0 1.43057e-09 0 1.87149e-09 0 1.48295e-09 
0 2.13568e-09 0 0 0 0 0 0 0 
0 0 0 5.08145e-10 0 0 0 0 0 
0 0 0 0 0 0 0 0 0 
0 0 0 0 0 0 0 0 0 
0 0 0 0 0 0 0 0 0 
0 0 0 0 0 0 0 0 0 
0 0 0 0 0 0 1.28275e-09 5.12774e-09 0 
2.07266e-09 0 0 0 0 0 0 0 2.01687e-09 
1.67411e-09 0 0 0 1.21354e-09 1.70518e-09 0 0 2.20339e-09 
0 0 0 0 0 0 6.7463e-10 0 0 
0 0 0 0 0 0 0 7.18997e-07 0 
7.19182e-07 7.95485e-09 0 0 0 0 0 0 6.6735e-07 
0 0 0 0 0 0 0 0 0 
0 0 0 0 0 0 0 0 0 
0 0 0 0 0 0 0 0 0 
0 0 0 0 0 0 0 0 0 
0 0 0 0 0 0 0 0 0 
0 1.63611e-12 0 0 0 3.5149e-09 0 1.42408e-09 0 
0 0 0 0 0 0 0 0 1.69674e-09 
0 0 0 0 0 0 0 0 0 
0 0 0 0 0 0 1.78465e-09 0 0 
0 0 0 0 0 0 0 0 0 
0 0 2.19979e-09 0 0 0 0 1.07044e-09 0 
0 0 2.02163e-09 2.02568e-09 1.30628e-09 0 0 0 0 
0 0 0 0 0 0 0 0 0 
0 0 0 0 0 0 0 0 0 
0 0 0 0 0 0 0 0 0 
0 0 0 0 0 0 0 0 0 
0 0 0 0 0 0 0 1.78974e-09 1.61167e-09 
3.84608e-09 6.49534e-07 0 0 0 0 0 0 0 
0 0 0 0 6.50099e-07 0 0 0 0 
0 8.98435e-07 9.15281e-07 0 1.80853e-09 7.20307e-07 0 0 0 
0 0 0 0 0 0 0 1.83714e-09 0 
0 1.57821e-09 0 0 0 1.43941e-09 0 1.67871e-09 0 
1.93185e-09 0 7.94899e-10 1.31215e-09 1.12898e-09 0 0 0 0 
0 0 0 0 0 0 0 0 0 
0 0 0 0 0 0 0 0 0 
0 0 0 0 0 0 0 0 0 
0 0 0 0 0 0 0 0 0 
0 0 0 6.4201e-10 1.85362e-09 4.202e-09 6.46964e-07 5.40347e-09 0 
0 2.6185e-09 3.48808e-09 0 0 0 0 0 9.38113e-11 
0 0 0 0 0 0 0 0 1.52485e-09 
0 0 0 0 0 0 1.68481e-09 0 1.09631e-09 
0 0 1.17613e-09 0 0 0 0 0 0 
0 0 0 0 0 0 1.96553e-10 0 0 
0 6.68513e-07 1.02198e-09 0 0 0 0 0 0 
0 0 0 0 0 0 0 1.53672e-09 0 
0 0 0 0 0 0 0 0 0 
0 0 0 0 0 0 0 0 0 
0 0 0 0 0 0 0 0 0 
0 0 0 0 0 1.04408e-09 0 0 5.07319e-09 
2.00083e-09 0 1.49815e-09 0 1.55687e-09 0 0 0 0 
0 8.09979e-10 0 0 0 0 0 0 0 
1.45229e-09 0 0 0 0 0 0 3.0569e-09 0 
1.41324e-09 0 0 0 0 0 0 0 0 
0 0 6.26042e-10 0 0 1.79042e-09 5.81816e-11 0 0 
0 0 0 0 6.94503e-10 0 0 0 1.76224e-09 
0 0 0 0 0 0 1.29449e-09 4.95047e-09 0 
0 0 0 0 0 0 0 0 0 
0 0 0 0 0 0 0 0 0 
0 0 0 0 0 0 0 0 0 
0 0 0 0 0 0 0 0 0 
0 0 0 0 0 0 0 0 0 
0 0 0 0 0 0 0 0 0 
0 0 0 0 0 1.94471e-09 0 0 2.73942e-10 
0 4.19233e-10 0 0 0 0 0 0 0 
0 0 0 0 0 0 0 4.41828e-09 0 
0 0 0 0 0 1.67129e-09 0 0 0 
0 0 0 0 0 0 0 0 0 
7.18974e-07 0 1.81269e-09 1.55355e-09 0 0 0 0 0 
0 0 0 0 0 0 0 0 0 
0 0 0 0 0 0 0 0 0 
0 0 0 0 0 1.3797e-09 0 0 0 
0 0 0 0 0 0 0 1.60998e-09 0 
0 0 6.81118e-10 3.76366e-10 0 0 7.76671e-10 0 0 
2.27431e-10 0 0 0 1.6104e-09 0 0 8.76557e-07 8.73918e-07 
0 0 0 0 0 0 0 0 5.82436e-10 
0 0 0 0 0 0 0 0 6.46598e-07 
0 0 0 2.81543e-10 0 0 0 0 0 
0 6.54907e-07 0 0 0 0 0 0 2.94226e-09 
5.79053e-09 0 0 0 0 0 0 0 0 
0 0 0 0 0 0 0 0 0 
0 0 0 0 0 0 0 0 0 
6.42571e-10 0 0 0 0 0 0 1.07502e-09 0 
0 0 0 0 0 0 0 0 0 
1.18449e-09 0 0 0 0 7.27607e-10 0 0 0 
0 0 0 0 0 1.72325e-09 0 0 3.38909e-09 
0 0 2.05253e-09 1.78823e-10 0 0 6.45875e-07 1.82113e-09 0 
9.58176e-10 0 0 0 0 0 0 2.76815e-09 0 
0 0 0 0 0 0 4.70172e-09 0 0 
0 0 1.34833e-09 3.27533e-10 3.83317e-09 0 1.19555e-09 0 1.13367e-09 
1.53165e-09 0 7.25631e-07 0 0 0 0 0 0 
0 0 0 0 0 0 0 0 0 
0 0 0 0 0 0 0 0 0 
0 0 0 9.51838e-10 1.11254e-09 1.54888e-10 0 0 0 
0 0 0 0 0 0 0 0 0 
0 0 3.00559e-09 0 8.66085e-10 0 9.3618e-10 1.6369e-10 0 
0 0 0 0 0 0 0 1.96941e-09 0 
4.38592e-09 0 0 0 2.49206e-09 0 0 2.59099e-09 8.80201e-10 
0 0 1.17672e-09 0 0 0 0 6.06695e-10 0 
0 0 1.47261e-09 1.02164e-09 0 0 9.00512e-09 6.54658e-07 4.69107e-09 
0 0 0 0 0 0 0 5.24041e-10 0 
0 0 3.83573e-09 0 0 3.78396e-10 0 0 0 
0 0 0 0 0 0 0 0 0 
0 0 0 0 0 0 0 0 0 
0 0 0 0 0 0 0 0 0 
7.18677e-07 0 0 0 0 0 0 0 0 
0 0 4.20043e-09 6.47114e-07 0 0 1.6514e-09 3.78556e-09 6.98882e-07 
0 2.42241e-09 1.55023e-09 0 0 0 0 1.2116e-09 0 
0 0 0 0 1.41387e-09 0 0 0 0 
0 0 0 0 0 0 0 0 6.95425e-10 
0 0 1.13369e-09 0 1.87052e-09 0 0 0 3.12152e-09 
0 0 2.92675e-09 0 0 0 0 1.14887e-09 0 
0 0 0 2.8131e-09 0 0 2.57731e-09 0 0 
0 0 0 0 0 0 0 0 0 
0 0 0 0 0 0 0 0 0 
0 0 0 6.5989e-07 0 0 0 0 7.75508e-07 
0 0 0 0 0 0 0 0 0 
0 0 0 0 0 0 0 0 0 
0 0 7.06246e-07 0 0 3.95143e-09 0 0 0 
0 9.48288e-10 2.87681e-09 4.41556e-11 0 7.30592e-10 0 0 0 
1.16635e-09 0 0 0 0 0 0 0 0 
0 1.01674e-09 0 0 0 0 0 0 0 
0 0 0 0 0 6.56206e-07 0 0 1.35627e-09 
0 4.61242e-10 0 0 5.80022e-10 8.85726e-10 0 1.47678e-09 0 
0 0 0 0 0 0 0 0 0 
0 0 0 0 0 0 0 0 0 
0 0 1.47074e-09 4.1033e-09 0 0 0 0 0 
0 0 3.54852e-09 2.26509e-09 0 0 1.13571e-09 0 0 
0 0 0 0 1.19525e-09 0 0 0 0 
1.6392e-09 0 0 0 0 0 2.25205e-09 6.0811e-09 3.64335e-09 
0 5.92037e-09 7.04279e-07 0 0 2.98854e-10 0 0 0 
0 0 0 0 3.84013e-09 2.90064e-09 4.77113e-09 1.65027e-09 0 
0 0 5.26762e-10 0 0 0 2.0572e-09 0 0 
0 0 2.53427e-09 0 0 0 0 0 0 
0 0 0 0 0 6.73282e-07 0 0 0 
1.68602e-10 0 0 0 0 0 0 0 0 
0 0 0 0 0 0 0 0 0 
0 0 0 0 0 0 1.41937e-09 0 7.11417e-07 
9.12548e-09 1.09797e-09 7.43747e-07 4.81025e-09 2.6215e-09 0 0 0 0 
0 7.249e-10 0 0 0 0 0 0 0 
0 1.11103e-09 1.41552e-09 0 0 0 0 0 0 
0 0 0 7.26226e-09 0 0 0 0 0 
0 0 0 0 1.3543e-09 0 6.59191e-07 4.64108e-09 2.47844e-09 
0 0 0 0 0 0 6.50316e-07 2.25499e-09 1.66146e-09 
0 0 6.727e-09 3.57177e-09 2.62224e-09 0 0 0 8.6825e-10 
0 0 0 0 0 0 0 0 0 
0 0 0 0 0 0 0 0 0 
0 0 0 0 0 0 0 0 0 
0 0 0 0 0 0 2.11893e-09 2.17673e-09 0 
0 0 0 0 0 6.49795e-10 1.41775e-09 0 2.80232e-09 
0 0 2.85237e-09 1.62082e-09 0 0 0 0 0 
0 0 3.71774e-10 0 0 0 0 0 0 
7.02432e-07 0 0 7.23894e-07 4.73304e-09 0 0 0 0 
0 0 0 0 0 0 0 2.65047e-09 0 
0 0 0 1.73746e-09 1.4062e-09 0 4.55697e-09 0 3.62366e-09 
0 0 4.18354e-09 6.50563e-07 0 0 1.07543e-09 0 1.14629e-09 
0 0 0 0 1.98024e-09 0 0 0 0 
0 0 4.14601e-10 0 0 0 0 0 0 
0 0 0 0 0 0 0 0 0 
0 0 0 0 0 0 0 0 5.07007e-10 
0 0 0 0 0 0 2.0807e-09 3.34479e-09 0 
0 8.71938e-07 0 0 0 0 0 0 0 
0 0 0 0 0 0 0 7.21005e-07 0 
5.66557e-09 0 0 0 0 0 0 0 0 
0 0 0 1.97153e-10 1.556e-09 2.52315e-09 2.11257e-09 3.84192e-09 0 
0 0 0 0 0 0 0 0 0 
0 0 0 0 0 0 0 9.09287e-12 0 
0 0 0 0 0 0 0 6.76122e-07 4.59688e-09 
0 0 0 0 0 0 0 0 0 
0 0 0 0 0 0 0 0 0 
0 0 0 0 0 0 0 0 2.52219e-10 
0 1.28496e-09 1.18642e-09 0 1.64578e-09 0 0 2.20785e-10 0 
3.91393e-09 0 8.85237e-07 0 0 0 0 0 0 
0 0 0 0 0 2.73169e-09 0 5.72088e-09 0 
0 0 3.30943e-09 2.94253e-09 0 0 0 0 1.33601e-09 
0 0 0 0 0 0 0 5.2075e-07 6.62107e-10 
0 3.26819e-09 0 0 0 0 2.44824e-09 3.44243e-09 0 
0 0 1.28222e-09 1.90201e-09 0 0 0 0 0 
0 0 0 0 0 0 1.99857e-09 0 0 
0 0 0 0 0 0 0 0 0 
0 0 0 0 0 0 0 0 1.66524e-11 
0 0 0 0 0 0 0 0 0 
0 0 0 0 0 0 8.42259e-10 0 0 
0 0 0 0 0 5.6352e-09 6.84739e-07 4.52625e-09 0 
0 0 0 0 7.81994e-10 0 0 0 0 
0 0 0 0 0 0 0 0 0 
0 0 0 0 0 0 0 0 5.58917e-09 
0 0 0 0 7.48536e-07 0 8.04963e-07 0 0 
0 0 0 0 0 0 0 0 0 
0 0 0 0 0 3.70579e-09 6.55922e-07 0 0 
0 0 0 0 0 0 0 0 0 
0 0 0 0 0 0 0 0 0 
0 0 0 0 0 0 0 0 0 
0 0 0 0 0 0 0 0 0 
2.36319e-09 1.43357e-09 0 0 0 0 1.5467e-09 4.43665e-09 7.78668e-10 
0 1.76636e-09 0 0 0 0 0 0 0 
8.99365e-07 9.13626e-07 0 4.13358e-09 3.76034e-10 5.18799e-11 0 0 4.53256e-09 
0 0 0 0 0 0 0 0 0 
7.39683e-10 1.34513e-09 1.93299e-09 0 0 0 0 3.65957e-09 0 
1.88628e-09 0 0 0 0 9.52597e-10 7.51164e-10 0 0 
0 0 0 0 0 0 2.22479e-09 2.38382e-09 0 
2.63531e-09 0 0 0 0 0 0 0 0 
0 0 0 0 0 0 0 0 0 
0 0 0 0 0 0 0 0 0 
0 0 0 0 0 0 0 0 0 
0 0 0 2.49962e-09 0 0 0 0 0 
0 7.83296e-10 0 0 0 0 0 0 2.98486e-09 
0 0 0 0 4.30964e-09 0 0 0 3.4261e-09 
0 0 2.13286e-09 0 3.75446e-09 0 0 0 0 
0 2.64671e-09 0 0 0 0 0 0 3.47424e-09 
8.77677e-07 0 0 7.3568e-07 0 1.3808e-09 1.64978e-09 0 0 
0 0 0 0 0 0 0 0 0 
0 0 0 0 0 0 0 0 0 
0 0 0 0 0 0 0 0 0 
0 0 0 0 0 0 0 0 0 
0 0 0 0 0 0 0 0 0 
0 0 0 3.66782e-09 7.14351e-07 0 9.10936e-09 0 0 
4.17172e-09 3.3789e-09 0 2.17449e-09 0 0 0 0 9.47562e-10 
0 0 0 0 0 0 0 0 0 
0 7.62079e-07 0 0 0 6.58906e-07 0 1.16374e-09 6.97487e-10 
0 8.28259e-10 0 0 1.72748e-09 0 0 0 0 
8.32064e-07 0 0 0 2.94787e-09 0 0 0 0 
0 0 0 0 1.11779e-10 0 0 0 0 
0 0 0 5.8875e-10 4.76026e-10 0 0 0 0 
0 0 0 0 0 0 0 0 0 
0 0 0 0 0 0 0 0 0 
0 0 0 0 0 0 0 0 0 
0 0 7.8234e-10 0 0 0 0 7.79122e-07 4.6161e-09 
0 0 0 6.54239e-07 0 0 1.56959e-09 4.49548e-10 0 
0 2.00873e-09 0 0 7.12606e-07 0 0 0 0 
0 0 1.0135e-08 0 0 0 4.30643e-09 0 1.41534e-09 
0 0 0 0 0 0 5.70115e-10 0 0 
0 0 1.14266e-09 0 7.48247e-07 7.01274e-09 0 0 0 
0 0 0 0 0 0 0 0 0 
0 0 0 0 0 0 0 0 0 
0 0 0 0 0 0 0 0 0 
0 0 0 0 0 0 0 0 0 
0 0 0 0 0 0 0 0 0 
0 0 0 0 0 0 0 0 5.40398e-09 
3.45314e-09 0 0 3.90464e-09 4.62583e-09 0 1.58577e-09 0 0 
0 0 0 0 0 0 0 1.06259e-09 8.40415e-09 
0 8.81065e-07 0 8.21437e-07 2.493e-09 3.93498e-09 0 0 3.63461e-09 
0 0 0 0 0 0 0 0 0 
0 0 2.34229e-09 0 0 0 0 0 0 
5.45592e-10 0 0 0 0 0 0 0 0 
0 0 0 0 0 0 0 0 0 
0 0 0 0 0 0 0 0 0 
0 0 0 0 0 0 0 0 0 
0 0 0 0 0 0 7.15502e-10 0 0 
0 0 0 0 0 0 1.7623e-09 2.44409e-09 1.02464e-08 
7.33234e-07 0 0 1.42521e-09 0 0 0 1.3654e-09 0 
0 0 0 0 0 0 0 9.02745e-09 0 
0 8.59889e-07 0 0 0 0 0 0 0 
0 0 0 0 0 6.67506e-07 0 3.50383e-09 0 
0 1.62603e-09 0 0 4.25021e-09 0 0 0 0 
0 0 0 0 0 0 0 0 0 
0 0 6.42571e-10 0 0 0 0 0 0 
0 0 0 0 0 0 0 0 0 
0 0 0 0 0 0 0 0 0 
0 0 0 0 0 0 0 6.44224e-07 0 
0 0 0 0 0 0 0 0 0 
0 0 2.05599e-09 0 2.13368e-09 0 2.33044e-09 1.48244e-09 0 
0 0 0 7.97855e-10 0 0 0 0 0 
7.54884e-07 0 0 0 0 0 0 0 0 
0 0 0 1.3377e-09 0 0 5.08195e-09 0 3.07157e-09 
0 0 0 0 0 0 2.46148e-09 0 1.12431e-09 
1.18508e-09 0 0 0 0 0 0 0 0 
0 0 0 0 0 0 0 0 0 
5.91355e-10 0 0 0 0 0 0 0 0 
0 0 0 0 0 0 0 0 0 
0 0 0 0 0 0 2.4278e-09 1.98537e-09 0 
0 0 0 0 0 0 0 0 0 
0 3.07106e-09 0 0 0 0 0 0 0 
0 0 0 0 5.73969e-10 0 0 3.09871e-09 0 
0 0 0 0 0 0 5.63803e-10 9.81561e-10 0 
0 0 0 0 0 0 0 0 0 
4.672e-09 0 0 8.46303e-07 0 8.42028e-07 9.01488e-09 0 7.14712e-10 
0 0 0 0 0 0 0 0 1.21728e-11 
0 0 0 0 3.53285e-09 0 0 0 0 
2.26042e-09 9.93239e-10 0 0 0 0 0 0 0 
0 0 0 0 0 0 0 0 0 
0 0 0 0 0 0 0 0 0 
0 0 0 0 1.49438e-09 3.03858e-09 0 0 0 
0 0 0 0 0 0 0 0 0 
0 0 0 0 2.11016e-10 0 0 0 0 
1.60501e-09 0 5.09871e-09 0 0 3.96519e-09 0 0 0 
0 0 0 0 6.58435e-10 0 0 0 0 
6.76032e-07 3.04026e-09 0 0 0 8.80427e-07 0 3.76399e-09 2.67599e-09 
0 0 2.33299e-10 0 0 0 0 0 0 
3.5264e-10 0 1.4176e-09 0 4.3353e-09 0 0 0 7.172e-07 
2.097e-09 0 0 0 0 0 0 0 0 
0 0 0 0 0 0 0 0 0 
0 0 0 0 0 0 1.15808e-10 0 0 
0 0 7.801e-10 0 0 0 0 6.44182e-07 0 
0 1.30929e-09 0 0 0 0 0 0 0 
0 0 0 0 6.48353e-07 0 0 0 0 
0 0 0 0 9.07143e-07 8.93521e-07 0 0 0 
0 0 0 0 0 0 0 0 0 
2.61564e-09 8.8269e-09 0 0 0 1.39838e-09 0 0 1.76045e-09 
0 0 0 3.91391e-10 0 0 0 0 0 
1.53162e-09 0 0 0 0 1.22101e-08 7.00032e-07 0 0 
0 0 0 0 0 0 0 0 0 
0 0 0 0 0 0 0 0 0 
0 0 0 0 0 0 0 0 0 
0 0 0 0 0 0 0 1.49383e-09 1.70701e-09 
0 0 0 0 0 0 0 0 0 
1.43548e-10 0 0 0 2.9102e-09 0 0 2.37937e-09 0 
0 0 0 0 0 1.13082e-08 0 0 0 
0 0 0 0 0 0 0 0 0 
0 0 0 0 0 0 0 0 6.03354e-11 
0 0 0 0 0 0 0 0 0 
0 0 1.73377e-09 0 0 0 0 2.06605e-09 0 
5.0093e-09 0 7.11514e-07 0 0 0 0 0 0 
0 0 0 0 0 0 0 0 0 
0 0 0 0 0 0 0 0 0 
2.8408e-10 4.91591e-10 0 0 7.98168e-10 0 0 0 0 
1.26199e-09 0 0 0 0 0 0 0 0 
0 0 0 0 0 2.46918e-09 0 0 5.80894e-10 
0 0 0 0 1.01172e-09 0 0 0 3.49308e-09 
3.32411e-10 0 0 0 0 0 0 0 0 
0 0 0 0 0 0 1.76477e-09 0 2.9615e-09 
2.59397e-09 0 0 0 0 0 0 0 0 
0 0 0 0 0 0 6.87749e-07 1.07921e-09 1.48776e-09 
0 0 3.49876e-09 2.34954e-09 0 0 0 0 0 
0 0 0 0 0 0 0 0 0 
0 0 0 0 0 0 0 0 0 
0 0 0 0 0 0 0 0 0 
0 0 0 5.82563e-10 0 0 0 0 0 
0 0 0 9.55579e-10 0 0 0 2.02032e-09 1.44071e-09 
0 0 0 0 1.92228e-09 8.62914e-09 6.77713e-07 0 0 
1.48364e-09 0 9.28228e-10 0 0 0 0 0 0 
0 0 0 0 0 0 7.91678e-10 0 0 
0 0 0 0 0 0 3.95397e-09 3.06599e-09 0 
0 0 0 6.54427e-07 0 1.93892e-09 7.13237e-10 0 0 
3.5717e-09 0 0 0 0 2.54419e-09 0 0 0 
0 0 0 0 0 0 0 0 0 
0 0 0 0 0 0 0 0 0 
0 0 0 1.60466e-09 0 2.04009e-09 0 0 0 
1.19736e-09 0 0 0 0 0 0 0 0 
0 0 0 0 0 0 6.48231e-07 0 0 
0 0 0 0 0 0 0 0 3.39005e-09 
0 0 1.02631e-09 0 0 0 0 0 0 
0 0 0 0 0 0 0 0 0 
0 0 0 0 0 2.52845e-09 6.12303e-09 6.49469e-07 0 
0 0 0 0 8.37896e-09 3.86738e-09 0 0 0 
0 1.53821e-09 0 0 0 0 0 1.27298e-09 1.60711e-09 
0 5.00636e-10 0 0 0 0 0 0 0 
0 0 0 0 0 0 0 0 0 
0 0 0 0 0 8.94257e-10 6.44411e-07 4.54125e-09 3.55566e-09 
0 0 0 0 0 0 0 0 0 
0 0 0 0 0 1.02264e-09 1.77274e-09 0 0 
0 0 0 0 0 0 9.56625e-10 1.23419e-09 0 
2.66006e-09 0 0 0 0 0 0 6.77652e-07 0 
0 7.31449e-10 0 0 0 0 0 0 0 
0 0 0 0 4.2181e-09 0 0 2.94815e-09 0 
0 0 0 7.69484e-10 0 0 0 0 0 
0 0 0 3.645e-09 0 0 0 6.60512e-07 0 
0 0 5.5737e-10 0 0 0 0 0 0 
0 0 0 0 0 0 0 0 0 
0 0 0 0 9.29859e-10 0 0 0 2.43065e-09 
0 0 0 0 0 0 0 0 0 
0 6.82422e-10 0 0 0 0 0 0 5.79709e-10 
0 8.90619e-10 0 0 0 0 0 0 4.06881e-10 
0 0 0 0 3.58878e-10 0 2.43427e-09 0 0 
0 0 0 0 0 0 0 0 0 
0 0 0 0 0 6.48642e-07 4.41027e-09 4.42665e-09 0 
0 0 0 0 0 1.02533e-09 0 0 0 
3.47765e-09 0 6.57176e-07 3.18061e-09 0 1.89854e-09 0 1.76956e-09 0 
0 0 0 0 0 0 0 0 0 
0 0 0 0 0 0 0 0 0 
0 0 0 0 0 0 0 0 0 
1.45357e-09 6.19253e-10 0 0 0 0 0 0 0 
0 0 0 0 5.94231e-10 0 0 0 0 
0 0 1.07955e-09 0 0 0 0 8.1741e-10 0 
0 0 0 1.47486e-09 0 0 0 1.03091e-09 3.86258e-09 
0 0 0 9.85934e-07 9.13986e-07 0 0 4.9119e-10 0 
0 0 0 0 0 0 0 0 0 
1.08193e-09 8.92216e-10 0 0 0 0 7.18044e-10 0 0 
0 0 0 0 0 0 0 0 0 
0 0 0 0 0 0 0 0 0 
0 0 0 0 0 0 0 0 0 
0 0 0 0 0 0 0 0 0 
1.30775e-09 0 0 0 0 0 0 0 0 
0 0 0 0 0 0 1.28011e-09 1.09626e-09 0 
0 0 0 0 0 0 0 4.62012e-10 0 
0 0 0 0 0 0 0 0 0 
0 0 0 8.31341e-07 0 0 6.8109e-09 0 0 
4.80574e-10 4.58815e-10 0 0 0 0 0 8.3064e-10 9.81952e-10 
0 0 0 0 0 0 0 0 0 
3.00768e-09 8.15594e-10 1.9019e-09 0 0 0 1.08677e-09 0 0 
0 0 1.85589e-09 0 0 0 0 0 0 
0 0 0 0 0 0 0 0 0 
0 0 0 0 0 0 0 0 5.50781e-10 
0 0 0 0 0 0 0 0 0 
0 0 0 0 0 0 1.87676e-09 0 0 
0 0 6.3522e-10 0 0 0 4.25109e-09 6.47271e-07 0 
0 0 0 0 1.66069e-09 0 0 0 0 
6.70713e-07 0 3.5306e-09 0 0 0 0 0 0 
0 0 0 0 0 0 0 0 0 
0 0 0 0 0 0 0 0 4.65458e-09 
6.66151e-07 0 0 1.40473e-09 1.22783e-09 0 0 0 0 
1.81256e-09 6.56914e-07 0 0 0 0 0 0 0 
0 0 0 0 0 0 0 0 0 
0 0 0 0 0 0 0 0 2.28556e-10 
0 0 0 5.91758e-09 0 0 0 0 0 
0 0 0 0 0 5.86547e-09 6.78817e-07 0 0 
0 0 0 1.17578e-09 0 0 0 3.42175e-09 0 
2.70619e-09 0 0 0 0 0 0 1.80984e-09 0 
0 6.14337e-09 0 0 0 0 0 3.52389e-09 4.08178e-10 
3.06451e-12 6.21496e-10 0 0 0 0 0 0 0 
0 0 0 0 0 0 0 0 0 
0 0 0 2.66762e-09 0 0 0 0 2.10558e-09 
0 1.1193e-08 0 0 0 0 0 0 0 
0 0 0 0 0 0 0 0 0 
0 0 0 0 0 0 0 0 0 
0 0 0 6.44111e-07 0 0 0 0 0 
0 0 0 0 6.79569e-07 0 0 0 5.54198e-09 
0 0 0 5.32946e-10 0 0 0 3.56934e-09 0 
1.94696e-09 2.1367e-09 0 0 0 0 1.16233e-09 1.16618e-09 6.56491e-07 
4.6766e-09 3.34803e-09 0 0 0 0 0 1.97834e-09 0 
0 0 0 0 0 0 8.44682e-10 0 0 
0 0 0 0 0 0 0 0 1.63797e-09 
0 0 0 0 0 2.16761e-09 0 0 5.24403e-09 
0 0 2.27526e-09 0 0 0 0 0 0 
0 0 0 0 0 0 0 0 0 
0 0 0 0 0 0 0 0 0 
0 0 0 0 2.04749e-09 0 0 0 1.14421e-09 
0 0 0 0 0 0 0 0 0 
0 2.00157e-09 0 1.62664e-09 0 0 3.77061e-09 0 0 
2.21577e-09 0 0 8.87417e-10 0 0 0 0 0 
1.06695e-09 2.40434e-09 1.19303e-09 0 0 0 0 0 0 
0 0 1.49364e-09 6.68056e-07 4.85042e-09 0 0 7.37236e-10 0 
0 0 0 0 0 0 0 0 0 
0 0 0 0 0 1.53355e-09 0 2.37316e-09 0 
6.5239e-07 0 0 0 2.15841e-09 1.17732e-09 0 0 0 
0 0 0 0 0 0 0 0 0 
0 0 0 0 0 0 0 0 0 
0 0 0 9.65497e-10 0 0 0 0 9.6849e-10 
0 0 0 2.78267e-09 0 0 0 0 1.86756e-09 
2.18476e-09 2.44739e-09 7.38014e-07 3.5111e-09 0 0 0 6.63264e-07 2.28361e-09 
0 0 0 6.32391e-10 0 2.7206e-09 0 0 0 
8.79346e-10 1.9987e-09 0 2.38977e-10 0 0 0 0 0 
0 0 0 0 0 0 0 0 8.60959e-10 
0 0 0 0 0 0 0 0 0 
0 0 0 9.83016e-07 1.08414e-06 0 0 0 0 
0 0 0 0 0 0 0 0 0 
0 0 0 0 0 0 0 0 0 
0 0 0 0 0 0 0 0 0 
0 0 0 0 0 0 0 0 0 
0 7.27186e-10 0 0 0 7.08062e-07 2.09605e-09 0 1.81757e-09 
0 0 4.07082e-09 1.04964e-09 0 0 0 0 2.21452e-09 
2.14241e-09 0 0 0 0 6.71993e-07 2.01391e-09 1.18798e-09 1.56351e-09 
0 0 0 0 0 0 0 0 0 
6.26852e-10 0 0 0 0 0 3.97525e-09 0 5.73663e-10 
0 0 0 0 0 0 0 0 0 
0 0 0 0 0 9.49337e-07 0 0 3.98461e-09 
1.74611e-09 0 0 0 0 6.54697e-10 0 0 7.66606e-07 
0 0 1.55361e-09 0 0 0 0 0 0 
0 0 0 0 0 0 0 0 0 
0 0 0 0 0 0 0 0 0 
0 0 0 5.03364e-12 0 0 1.46501e-09 0 1.07891e-09 
0 0 0 0 7.43633e-07 0 2.22911e-09 0 3.13867e-09 
0 0 0 4.02717e-09 0 0 0 0 0 
2.13339e-09 0 4.29907e-11 0 0 0 0 0 0 
0 0 0 0 0 0 0 6.80453e-07 0 
0 1.82018e-09 2.91313e-10 0 0 0 0 0 0 
0 0 0 1.27048e-09 0 0 0 0 0 
2.35111e-09 3.6054e-09 0 0 0 0 0 0 0 
0 7.70087e-07 0 0 0 0 0 0 0 
0 0 0 0 0 0 0 0 0 
0 0 0 0 0 0 0 0 0 
0 0 0 0 0 6.48544e-09 6.95915e-07 3.32731e-09 0 
4.10373e-09 0 0 1.90804e-09 0 0 0 0 1.63427e-09 
0 0 3.6914e-09 6.64503e-07 9.55223e-10 1.04601e-09 0 1.64402e-09 0 
0 0 1.34032e-09 0 1.82846e-09 0 1.04663e-09 0 0 
0 0 2.28245e-09 7.63323e-07 8.22486e-09 0 0 0 0 
1.92895e-09 0 7.66438e-09 0 7.64749e-10 0 0 1.04525e-09 1.14075e-09 
0 0 1.32607e-09 0 0 0 0 4.2876e-09 1.16933e-09 
0 6.68388e-07 3.82381e-09 1.93753e-09 0 1.00371e-09 0 0 0 
0 0 0 3.15286e-09 0 0 0 0 0 
0 0 0 0 0 0 0 0 0 
0 0 0 0 0 0 0 0 0 
0 0 0 0 0 0 3.00428e-09 0 0 
0 0 0 3.60177e-10 0 0 6.32053e-10 0 2.52691e-09 
0 0 0 0 0 1.02396e-08 0 1.74552e-09 0 
6.72009e-07 0 2.39603e-09 0 0 3.01248e-09 0 0 0 
0 0 0 0 0 7.66079e-07 0 1.60832e-09 0 
0 0 0 4.45021e-09 0 0 2.61699e-09 1.36462e-09 0 
0 4.1757e-10 0 0 0 0 0 0 0 
0 2.75611e-09 0 1.42691e-09 0 0 0 0 0 
0 0 0 0 2.74129e-09 0 0 0 0 
0 0 0 0 0 0 0 0 0 
0 0 0 0 0 0 0 0 0 
0 0 0 0 0 0 0 0 0 
0 1.49893e-09 0 0 0 0 0 0 6.74527e-07 
0 0 1.96525e-09 2.16714e-09 1.11923e-09 0 0 3.94216e-09 0 
0 0 0 0 0 0 6.62038e-07 0 0 
0 0 0 1.46198e-09 0 0 0 0 0 
0 0 0 0 0 9.63837e-07 1.67102e-09 0 0 
0 0 3.05038e-09 0 6.55587e-07 0 0 0 0 
0 1.83293e-09 2.74254e-09 0 0 0 0 0 0 
0 0 4.81079e-09 0 0 0 0 9.16492e-10 0 
0 0 0 0 0 0 0 0 0 
0 0 0 0 0 0 0 0 0 
0 0 0 0 0 0 0 0 0 
0 0 0 0 0 0 0 0 0 
0 0 0 0 0 0 0 0 0 
0 7.60161e-10 0 1.27759e-09 0 0 0 0 0 
1.69922e-09 1.04339e-09 0 0 0 0 2.03471e-09 0 0 
0 0 0 0 0 0 0 0 0 
0 0 0 0 0 4.13562e-09 2.7069e-09 0 0 
0 0 0 0 0 0 9.93973e-10 0 0 
3.3387e-09 0 0 5.13579e-09 8.23372e-07 0 0 0 0 
0 0 0 0 0 0 0 0 0 
0 0 0 0 0 0 0 0 0 
0 0 0 0 0 0 0 0 0 
0 1.0083e-09 0 0 0 0 0 4.93562e-10 0 
0 0 0 2.37671e-09 0 0 0 0 0 
0 0 1.71396e-09 0 0 3.48026e-09 2.71216e-09 0 2.49337e-09 
0 1.67449e-09 1.38512e-09 0 0 0 0 0 0 
0 0 0 0 0 0 0 1.00376e-06 9.74893e-09 
0 0 0 0 2.09695e-09 0 0 0 2.6507e-09 
0 5.63291e-10 0 2.48319e-09 0 0 0 0 0 
0 0 3.74488e-09 0 9.82898e-07 0 0 0 0 
0 0 0 0 0 0 0 0 0 
0 0 0 0 0 0 0 0 0 
0 0 0 0 0 0 0 0 1.76088e-09 
6.67698e-09 0 1.34366e-09 0 0 0 0 0 6.51307e-07 
4.23579e-09 0 0 1.76828e-09 0 0 2.17983e-09 0 5.62988e-10 
0 0 0 0 0 1.13173e-09 0 6.7216e-07 0 
0 0 0 0 0 0 0 0 0 
7.22832e-10 0 0 0 2.71899e-09 0 0 0 9.42532e-07 
0 0 0 0 7.48247e-07 0 0 5.90205e-11 0 
0 0 0 0 0 0 0 1.69661e-09 0 
0 6.77783e-07 1.39704e-09 0 0 9.19336e-07 0 0 0 
1.10599e-09 0 0 0 0 0 0 0 0 
0 0 0 0 0 0 0 0 0 
0 0 0 0 0 0 0 0 0 
0 0 0 6.683e-10 1.93433e-10 0 1.33173e-09 0 0 
2.85421e-09 2.0418e-09 0 1.26043e-09 0 0 0 0 0 
0 0 0 0 0 0 0 0 8.84903e-10 
0 1.3353e-09 2.5974e-09 0 0 2.36821e-09 0 0 0 
1.19969e-09 0 0 2.04548e-09 0 1.03851e-09 1.49934e-09 0 0 
6.30374e-09 0 0 9.49923e-07 0 1.44637e-09 0 3.77149e-09 0 
0 4.38345e-09 0 1.90062e-09 3.59045e-09 0 6.65671e-07 0 0 
1.71829e-09 0 3.9799e-09 1.50101e-09 3.71748e-09 0 0 0 0 
0 0 5.31655e-10 0 0 0 0 0 0 
0 0 0 0 0 0 0 0 0 
0 0 0 0 0 0 0 0 0 
0 5.43182e-09 6.77246e-07 5.56389e-09 0 5.87572e-10 0 0 0 
0 0 3.14932e-09 0 0 0 6.49424e-10 1.13047e-09 6.52206e-07 
0 1.31028e-09 0 0 0 0 0 0 0 
0 0 6.98306e-09 7.38548e-07 0 3.50777e-09 0 1.76615e-09 0 
0 1.72506e-09 0 1.60923e-09 0 0 0 0 0 
0 0 1.35137e-09 0 9.14263e-07 0 0 4.17537e-09 0 
6.97538e-07 0 0 6.86621e-07 4.71025e-09 0 0 4.70272e-09 2.9571e-09 
0 2.24445e-09 3.8395e-09 0 0 0 0 0 0 
0 6.5374e-10 0 0 0 0 0 0 0 
0 0 0 0 0 0 0 0 0 
0 0 0 0 0 0 2.75903e-10 0 0 
0 0 0 0 0 0 0 0 0 
0 0 0 0 0 0 0 0 0 
1.01201e-09 0 0 0 4.11681e-10 0 0 0 0 
1.0718e-09 0 0 0 0 0 7.66933e-07 0 5.99128e-10 
0 0 0 0 0 0 0 0 0 
0 0 0 0 0 0 0 6.34447e-10 0 
0 0 0 0 4.10333e-09 0 6.08759e-09 0 0 
0 0 0 0 0 5.17334e-09 4.65571e-09 0 0 
0 0 0 0 0 0 0 0 0 
0 0 0 0 0 0 0 0 0 
0 0 0 0 0 0 0 0 0 
0 0 0 0 0 3.21542e-09 0 7.44437e-10 0 
0 5.78492e-10 2.84486e-09 8.88974e-10 0 0 0 0 9.51116e-10 
9.68804e-11 0 0 0 0 0 0 0 0 
0 0 2.37094e-09 1.23188e-09 0 0 0 1.24342e-09 2.80985e-09 
3.05242e-09 0 0 0 6.80042e-07 0 0 0 0 
0 0 1.47188e-09 0 0 0 0 0 0 
0 0 7.02718e-10 0 0 0 0 6.23677e-09 0 
1.03496e-09 0 4.28091e-09 0 0 7.7905e-07 0 0 4.23791e-10 
0 0 0 0 0 0 0 0 0 
0 0 0 0 0 0 0 0 0 
0 0 0 0 0 0 0 0 0 
1.2426e-09 0 0 8.75981e-07 8.93361e-07 0 0 2.21791e-10 0 
0 0 0 6.07371e-09 0 0 0 0 0 
2.19262e-09 0 0 1.75579e-09 0 0 0 0 0 
0 0 0 0 0 0 0 8.78195e-07 1.22204e-09 
0 0 0 0 4.62542e-09 1.66343e-09 0 0 6.75065e-07 
0 1.31113e-09 0 0 6.60873e-07 0 0 0 0 
0 0 0 2.4095e-09 1.56998e-09 0 3.40762e-09 0 0 
0 0 6.84429e-07 0 0 0 0 7.67307e-07 0 
0 0 0 0 0 0 0 0 0 
0 0 0 0 0 0 0 0 0 
0 0 0 0 0 0 0 0 0 
0 1.53605e-09 0 0 0 0 5.70492e-09 0 0 
1.99792e-09 1.48747e-09 0 0 0 6.44712e-07 7.57097e-09 2.88975e-09 8.61436e-10 
0 6.71957e-10 0 1.79385e-09 6.51347e-07 2.75149e-09 1.85899e-09 0 0 
5.52683e-10 0 3.2116e-10 0 0 0 0 0 0 
0 0 0 0 4.86888e-09 0 0 0 9.14898e-10 
0 5.36967e-09 0 0 0 0 0 0 0 
1.7663e-09 0 6.59399e-07 0 0 0 2.36974e-09 4.04286e-10 0 
6.83884e-07 0 0 2.79004e-09 0 1.30802e-09 0 0 0 
0 0 0 0 0 0 0 0 0 
0 0 0 0 0 0 0 0 0 
0 0 0 0 0 0 0 0 0 
0 0 8.37717e-10 1.00819e-09 1.95601e-09 0 0 0 0 
0 0 1.38084e-09 4.69017e-10 0 0 0 0 1.77594e-09 
0 0 0 0 0 3.63302e-09 0 0 0 
0 8.25715e-10 0 0 0 0 0 9.92738e-07 1.15628e-06 
1.04972e-06 0 0 1.55989e-09 7.74593e-07 0 0 3.17034e-09 4.25584e-09 
0 0 3.15377e-09 0 0 0 0 0 0 
0 0 2.10083e-09 2.88735e-09 0 5.43216e-10 3.24667e-09 1.09735e-09 0 
1.36749e-09 0 0 0 0 7.17471e-10 0 1.57252e-09 7.36378e-10 
3.27527e-09 0 1.01263e-09 0 0 0 0 0 0 
0 0 0 0 0 0 0 0 0 
0 0 0 0 0 0 0 0 0 
0 0 0 0 0 5.40331e-09 0 0 6.94933e-09 
8.75122e-07 0 0 1.26101e-09 0 0 0 0 0 
0 0 0 0 0 9.92839e-10 1.55042e-09 0 0 
0 0 0 0 0 0 0 0 0 
1.81742e-09 0 0 0 0 0 5.50231e-09 7.35012e-07 0 
0 3.6693e-09 0 0 0 0 0 0 0 
0 4.6925e-10 0 0 0 0 0 0 6.62861e-07 
1.46136e-09 0 0 0 2.84548e-09 1.14462e-09 0 0 0 
0 0 5.74315e-11 0 0 0 0 0 0 
0 0 0 0 0 0 0 0 0 
0 0 0 0 0 0 0 0 0 
0 0 0 0 0 0 0 0 4.14043e-09 
0 8.65036e-07 0 0 0 0 0 1.15284e-09 0 
8.48112e-10 0 0 0 0 0 0 0 1.01227e-09 
0 0 0 0 0 0 0 0 0 
0 2.0539e-09 0 2.10873e-09 0 7.41024e-07 0 0 3.79898e-09 
0 0 0 0 3.70023e-10 0 0 0 0 
0 0 0 0 0 0 0 0 0 
0 0 0 0 0 2.12977e-09 0 0 0 
0 2.90039e-10 0 0 0 0 0 0 0 
0 0 0 0 0 0 0 0 0 
0 0 0 0 0 0 0 0 0 
0 0 0 0 1.12015e-09 0 1.14471e-09 0 0 
0 0 1.78144e-08 0 2.54007e-09 0 0 0 0 
0 0 0 0 0 0 0 0 0 
0 0 0 1.77424e-09 0 0 0 2.30751e-09 0 
4.43885e-09 7.10043e-07 2.98799e-09 0 0 0 7.00264e-09 3.58845e-09 5.33814e-09 
0 0 0 0 8.65278e-07 0 0 0 0 
0 0 0 0 0 0 0 3.11644e-10 0 
1.07481e-09 0 1.57608e-09 0 0 1.87501e-09 2.39633e-09 0 1.0713e-09 
1.08727e-09 3.30164e-10 0 0 0 0 0 0 0 
0 0 0 0 0 0 0 0 0 
0 0 0 0 0 0 0 0 0 
0 0 0 0 0 0 0 0 0 
0 0 1.6797e-09 0 0 0 6.74002e-10 0 0 
0 0 0 0 0 0 0 0 0 
0 0 0 0 0 2.91608e-09 6.46971e-07 5.4293e-09 1.2375e-09 
0 3.89753e-09 0 0 0 1.90959e-09 0 2.29943e-09 0 
0 0 0 0 2.41515e-09 8.61447e-07 0 3.50399e-09 1.63163e-09 
0 0 0 0 0 0 0 0 0 
0 0 0 0 3.44976e-10 6.46469e-10 0 0 2.39347e-09 
0 0 0 0 0 0 0 0 0 
0 0 0 0 0 0 0 0 0 
0 0 0 0 0 0 0 0 0 
0 0 0 0 0 0 0 4.08928e-09 0 
0 1.49623e-09 0 1.01292e-09 0 0 0 0 1.32394e-09 
0 0 0 0 0 0 0 0 0 
0 0 0 0 0 0 0 3.2129e-09 0 
0 0 0 2.14704e-09 0 0 3.06656e-11 0 0 
0 0 0 0 0 0 0 0 0 
0 0 0 0 0 0 0 0 0 
0 0 0 0 0 0 1.59967e-09 0 6.5258e-07 
0 1.88116e-09 0 0 0 0 0 0 0 
0 0 0 0 0 0 0 0 0 
0 0 0 0 0 0 0 0 0 
0 0 0 0 0 0 0 0 6.44269e-07 
0 0 8.71302e-10 0 2.20015e-09 3.41516e-09 0 4.44412e-10 9.62307e-10 
1.01084e-09 0 0 0 0 0 0 0 0 
0 0 0 0 0 0 0 0 6.70978e-10 
0 0 0 0 7.441e-10 0 0 6.02851e-10 0 
0 0 0 0 0 1.3263e-09 0 5.08143e-09 0 
1.90041e-09 0 0 0 4.10515e-09 0 6.656e-10 8.23075e-10 0 
0 0 0 0 0 0 0 0 3.55629e-09 
2.03625e-09 0 0 0 0 1.48195e-09 0 0 0 
0 0 0 0 0 0 0 0 0 
0 0 0 0 0 0 0 0 0 
0 0 0 0 0 0 0 0 2.04024e-09 
1.37981e-09 0 3.27278e-10 0 0 0 1.03449e-09 0 0 
0 0 0 0 0 0 0 0 0 
0 0 0 0 1.12282e-09 0 0 0 9.52749e-10 
0 0 0 0 0 7.38956e-10 0 0 0 
0 0 0 0 0 0 0 0 0 
0 0 2.34618e-09 0 1.28208e-09 6.828e-07 0 2.96062e-09 0 
0 0 0 0 0 0 0 0 0 
0 0 0 0 0 0 0 1.36531e-09 0 
0 0 0 0 0 0 0 0 0 
0 0 0 0 0 0 0 0 0 
0 0 0 0 0 0 0 0 0 
0 2.18984e-09 1.64165e-09 1.19342e-09 0 0 0 3.12321e-09 6.59487e-07 
4.60999e-09 0 0 0 0 0 0 0 0 
4.95927e-10 1.99972e-10 0 0 3.42025e-10 1.02984e-09 0 0 0 
0 0 0 0 0 0 0 4.39406e-10 0 
0 0 0 0 0 0 0 0 1.39335e-09 
0 0 2.56976e-09 7.37172e-10 0 0 0 0 3.24049e-09 
0 0 0 0 0 0 0 0 0 
1.19674e-09 0 0 0 0 1.98033e-09 0 0 0 
2.24417e-11 0 0 0 0 0 0 0 0 
0 0 0 0 0 0 0 0 0 
0 0 0 0 0 0 0 0 0 
0 7.23477e-10 0 0 8.88389e-10 0 0 0 0 
0 0 4.29846e-09 0 6.73195e-07 0 0 1.50696e-09 0 
0 0 0 0 0 1.5545e-10 0 8.92302e-10 0 
0 0 0 0 9.47564e-10 0 0 2.57243e-09 0 
0 0 0 0 0 0 0 0 0 
0 6.13641e-10 0 0 0 6.79229e-07 6.42752e-09 0 0 
4.0838e-09 0 0 0 0 0 0 0 0 
0 7.26132e-10 2.11431e-09 0 6.52552e-07 4.19458e-09 0 0 2.63728e-09 
0 1.76712e-09 0 0 0 0 0 0 0 
0 0 0 0 0 0 0 0 0 
0 0 0 0 0 0 0 0 0 
0 0 0 0 0 0 0 0 0 
0 0 0 0 0 0 0 0 0 
0 0 0 0 3.74405e-09 0 0 2.60888e-09 0 
0 0 2.76396e-09 0 0 0 2.68636e-09 6.4543e-07 0 
4.50527e-09 0 0 0 0 0 0 0 0 
6.47157e-07 4.49586e-09 0 1.35615e-09 0 0 0 0 0 
1.48522e-08 6.63033e-07 0 2.1704e-09 0 0 0 0 0 
0 0 1.1241e-09 0 0 0 0 0 0 
0 0 8.56553e-07 0 0 0 0 0 0 
0 0 0 0 0 0 0 0 0 
0 0 0 0 0 0 0 0 0 
0 0 0 0 0 0 0 0 0 
0 0 0 0 0 0 4.89497e-09 0 0 
1.35122e-09 1.89208e-10 0 0 7.89538e-10 0 6.70881e-07 0 3.66678e-09 
0 0 0 0 0 0 2.33177e-09 5.10357e-10 0 
0 0 5.33814e-10 0 0 0 0 0 0 
0 0 1.38034e-09 0 0 0 3.41164e-09 0 0 
0 0 0 2.70497e-09 0 0 0 0 0 
0 0 0 0 0 0 0 0 8.53217e-10 
0 2.72341e-09 0 8.56742e-07 5.12361e-09 0 0 0 0 
0 0 0 0 0 0 0 0 0 
0 0 0 0 0 0 0 0 0 
0 0 0 0 0 0 0 0 1.21817e-09 
0 1.92722e-09 0 0 0 7.67983e-09 6.95531e-07 2.72811e-09 2.76403e-09 
9.46217e-10 2.64075e-09 0 0 0 0 0 0 0 
0 0 0 8.14124e-07 0 1.16353e-09 0 1.93162e-09 0 
0 0 1.96246e-10 0 0 0 0 0 0 
2.21324e-09 1.36555e-11 0 0 0 0 0 0 0 
6.61594e-10 0 0 0 0 0 1.56213e-10 0 0 
0 0 0 0 0 0 1.87176e-09 0 0 
0 0 0 0 0 0 1.23096e-09 0 3.43112e-10 
0 0 0 0 0 0 0 0 0 
0 0 0 0 0 0 0 0 0 
0 0 0 0 0 0 3.8289e-09 1.09182e-09 4.65592e-09 
0 1.09791e-09 0 2.62025e-09 8.11466e-07 0 0 0 3.06842e-09 
6.0696e-10 0 0 0 0 0 0 0 0 