# vtk DataFile Version 5.1
vtk output
ASCII
DATASET STRUCTURED_POINTS
DIMENSIONS 100 100 1
SPACING 1 1 1
ORIGIN 0 0 0
POINT_DATA 10000
FIELD FieldData 6
feature_1 1 10000 float
0 0 0 0 0 0 0 0 0 
0 0 0 0 0 0 0 0 0 
0 0 0 0 0 0 0 0 0 
0 0 0 0 0 0 0 0 0 
0 0 0 0 0 0 0 0 0 
0 0 0 0 0 0 0 0 0 
0 0 0 0 0 0 0 0 0 
0 0 0 0 0 0 0 0 0 
0 0 0 0 0 0 0 0 0 
0 0 0 0 0 0 0 0 0 
0 0 0 0 0 0 0 0 0 
0 0 0 0 0 0 0 0 0 
0 0 0 0 0 0 0 0 0 
0 0 0 0 0 0 0 0 0 
0 0 0 0 0 0 0 0 0 
0 0 0 0 0 0 0 0 0 
0 0 0 0 0 0 0 0 0 
0 0 0 0 0 0 0 0 0 
0 0 0 0 0 0 0 0 0 
0 0 0 0 0 0 0 0 0 
0 0 0 0 0 0 0 0 0 
0 0 0 0 0 0 0 0 0 
0 0 0 0 0 0 0 0 0 
0 0 0 0 0 0 0 0 0 
0 0 0 0 0 0 0 0 0 
0 0 0 0 0 0 0 0 0 
0 0 0 0 0 0 0 0 0 
0 0 0 0 0 0 0 0 0 
0 0 0 0 0 0 0 0 0 
0 0 0 0 0 0 0 0 0 
0 0 0 0 0 0 0 0 0 
0 0 0 0 0 0 0 0 0 
0 0 0 0 0 0 0 0 0 
0 0 0 0 0 0 0 0 0 
0 0 0 0 0 0 0 0 0 
0 0 0 0 0 0 0 0 0 
0 0 0 0 0 0 0 0 0 
0 0 0 0 0 0 0 0 0 
0 0 0 0 0 0 0 0 0 
0 0 0 0 0 0 0 0 0 
0 0 0 0 0 0 0 0 0 
0 0 0 0 0 0 0 0 0 
0 0 0 0 0 0 0 0 0 
0 0 0 0 0 0 0 0 0 
0 0 0 0 0 0 0 0 0 
0 0 0 0 0 0 0 0 0 
0 0 0 0 0 0 0 0 0 
0 0 0 0 0 0 0 0 0 
0 0 0 0 0 0 0 0 0 
0 0 0 0 0 0 0 0 0 
0 0 0 0 0 0 0 0 0 
0 0 0 0 0 0 0 0 0 
0 0 0 0 0 0 0 0 0 
0 0 0 0 0 0 0 0 0 
0 0 0 0 0 0 0 0 0 
0 0 0 0 0 0 0 0 0 
0 0 0 0 0 0 0 0 0 
0 0 0 0 0 0 0 0 0 
0 0 0 0 0 0 0 0 0 
0 0 0 0 0 0 0 0 0 
0 0 0 0 0 0 0 0 0 
0 0 0 0 0 0 0 0 0 
0 0 0 0 0 0 0 0 0 
0 0 0 0 0 0 0 0 0 
0 0 0 0 0 0 0 0 0 
0 0 0 0 0 0 0 0 0 
0 0 0 0 0 0 0 0 0 
0 0 0 0 0 0 0 0 0 
0 0 0 0 0 0 0 0 0 
0 0 0 0 0 0 0 0 0 
0 0 0 0 0 0 0 0 0 
0 0 0 0 0 0 0 0 0 
0 0 0 0 0 0 0 0 0 
0 0 0 0 0 0 0 0 0 
0 0 0 0 0 0 0 0 0 
0 0 0 0 0 0 0 0 0 
0 0 0 0 0 0 0 0 0 
0 0 0 0 0 0 0 0 0 
0 0 0 0 0 0 0 0 0 
0 0 0 0 0 0 0 0 0 
0 0 0 0 0 0 0 0 0 
0 0 0 0 0 0 0 0 0 
0 0 0 0 0 0 0 0 0 
0 0 0 0 0 0 0 0 0 
0 0 0 0 0 0 0 0 0 
0 0 0 0 0 0 0 0 0 
0 0 0 0 0 0 0 0 0 
0 0 0 0 0 0 0 0 0 
0 0 0 0 0 0 0 0 0 
0 0 0 0 0 0 0 0 0 
0 0 0 0 0 0 0 0 0 
0 0 0 0 0 0 0 0 0 
0 0 0 0 0 0 0 0 0 
0 0 0 0 0 0 0 0 0 
0 0 0 0 0 0 0 0 0 
0 0 0 0 0 0 0 0 0 
0 0 0 0 0 0 0 0 0 
0 0 0 0 0 0 0 0 0 
0 0 0 0 0 0 0 0 0 
0 0 0 0 0 0 0 0 0 
0 0 0 0 0 0 0 0 0 
0 0 0 0 0 0 0 0 0 
0 0 0 0 0 0 0 0 0 
0 0 0 0 0 0 0 0 0 
0 0 0 0 0 0 0 0 0 
0 0 0 0 0 0 0 0 0 
0 0 0 0 0 0 0 0 0 
0 0 0 0 0 0 0 0 0 
0 0 0 0 0 0 0 0 0 
0 0 0 0 0 0 0 0 0 
0 0 0 0 0 0 0 0 0 
0 0 0 0 0 0 0 0 0 
0 0 0 0 0 0 0 0 0 
0 0 0 0 0 0 0 0 0 
0 0 0 0 0 0 0 0 0 
0 0 0 0 0 0 0 0 0 
0 1.58317e-09 0 0 0 1.13581e-10 0 0 0 
0 0 0 0 0 0 0 2.34712e-09 5.50356e-10 
0 0 0 0 0 0 0 0 0 
0 0 0 0 0 0 0 0 0 
0 0 0 0 0 0 0 0 0 
0 0 0 0 0 0 0 0 0 
0 0 0 0 0 0 0 0 0 
0 0 0 0 0 0 0 0 0 
0 0 0 0 0 0 0 0 0 
0 0 0 0 0 0 0 0 0 
0 0 0 0 0 0 0 0 1.30881e-09 
0 0 0 0 0 0 0 0 0 
0 0 0 0 0 0 0 0 0 
0 0 0 0 0 0 0 0 0 
0 0 0 0 0 0 0 0 0 
0 0 0 0 0 0 0 0 0 
0 0 0 0 0 0 0 0 0 
0 0 0 0 0 0 0 0 0 
0 0 0 0 0 0 0 0 0 
0 0 0 0 0 0 0 0 0 
0 0 0 0 0 0 0 0 0 
0 0 0 0 0 0 0 0 0 
0 0 0 7.92574e-07 6.12659e-09 2.49186e-09 0 1.08111e-09 0 
0 0 0 0 0 0 1.93221e-09 1.19107e-09 6.44848e-07 
1.5933e-09 0 0 0 0 0 0 0 0 
0 0 0 0 0 0 0 0 0 
0 0 0 0 0 0 0 0 0 
0 0 0 0 0 0 0 0 0 
0 0 0 0 0 0 0 0 0 
0 0 0 0 0 0 0 0 0 
0 0 0 0 0 0 0 0 0 
0 0 0 0 5.61807e-10 0 0 0 0 
0 0 0 1.38889e-09 0 0 0 0 0 
3.00564e-09 0 0 8.33404e-07 0 6.53872e-09 0 0 0 
7.07931e-10 0 0 0 0 0 0 0 0 
0 0 1.69875e-09 1.24607e-09 7.53781e-10 0 0 0 0 
0 0 0 0 0 0 0 0 0 
0 1.63814e-09 0 0 0 0 0 0 0 
0 0 0 0 0 0 0 0 0 
0 0 0 0 0 0 0 0 0 
0 0 0 0 0 0 0 0 0 
0 0 0 0 0 0 0 0 0 
0 0 0 0 4.32844e-09 6.46936e-07 0 0 0 
0 0 0 1.60481e-09 0 7.59538e-09 0 0 1.24639e-09 
0 0 0 0 0 0 0 0 1.4252e-09 
0 0 0 0 0 0 0 0 0 
0 0 0 0 0 0 0 0 0 
0 0 0 0 0 0 1.13801e-09 0 0 
6.46299e-07 1.28111e-09 0 9.11764e-10 0 0 0 0 0 
0 0 0 0 0 0 0 0 0 
0 0 0 0 0 0 0 0 0 
0 0 0 0 0 0 0 0 0 
0 0 0 0 0 0 0 0 0 
0 0 0 0 0 0 0 0 0 
0 0 0 0 1.11586e-09 3.9485e-09 0 4.33451e-09 2.69233e-09 
0 0 0 0 0 0 7.98491e-07 0 0 
9.29471e-10 0 0 0 0 0 0 0 0 
0 0 1.45097e-09 0 0 0 0 0 0 
0 0 0 0 9.33605e-10 0 0 0 0 
0 1.02163e-10 0 0 4.15322e-10 0 0 0 0 
0 0 0 0 0 0 0 0 0 
0 0 0 0 0 0 0 0 0 
0 0 0 0 0 0 0 0 0 
0 0 0 0 0 0 0 0 0 
0 0 0 0 0 0 1.95265e-09 0 0 
7.22564e-10 0 0 3.47613e-10 0 0 2.39088e-09 0 0 
0 0 8.53978e-10 0 0 7.41892e-07 1.208e-08 0 0 
0 0 6.89673e-07 0 7.67686e-10 9.65825e-10 0 0 0 
0 0 0 0 1.52439e-09 0 1.76759e-09 0 1.39296e-09 
8.43672e-13 2.05893e-09 0 0 0 0 0 0 0 
0 0 0 3.74344e-10 0 0 0 0 0 
0 0 0 0 0 0 0 0 0 
0 0 0 0 0 0 0 0 0 
0 0 0 0 0 0 0 0 0 
0 0 0 0 0 0 0 0 0 
0 0 0 0 0 0 1.1352e-09 5.00964e-09 0 
1.90551e-09 0 0 0 0 0 0 0 2.07695e-09 
1.56126e-09 0 0 0 1.26556e-09 1.73142e-09 0 0 2.19621e-09 
0 0 0 0 0 0 7.18137e-10 0 0 
0 0 0 0 0 0 0 7.19053e-07 0 
7.19098e-07 7.95882e-09 0 0 0 0 0 0 6.67322e-07 
0 0 0 0 0 0 0 0 0 
0 0 0 0 0 0 0 0 0 
0 0 0 0 0 0 0 0 0 
0 0 0 0 0 0 0 0 0 
0 0 0 0 0 0 0 0 0 
0 0 0 0 0 3.58588e-09 0 1.36288e-09 0 
0 0 0 0 0 0 0 0 1.81804e-09 
0 0 0 0 0 0 0 0 0 
0 0 0 0 0 0 1.71191e-09 0 0 
0 0 0 0 0 0 0 0 0 
0 0 2.27779e-09 0 0 0 0 8.62198e-10 0 
0 0 2.0492e-09 2.04023e-09 1.45875e-09 0 0 0 0 
0 0 0 0 0 0 0 0 0 
0 0 0 0 0 0 0 0 0 
0 0 0 0 0 0 0 0 0 
0 0 0 0 0 0 0 0 0 
0 0 0 0 0 0 0 1.79709e-09 1.59216e-09 
3.79972e-09 6.49487e-07 0 0 0 0 0 0 0 
0 0 0 0 6.5009e-07 0 0 0 0 
0 8.98449e-07 9.15309e-07 0 1.98546e-09 7.20204e-07 0 0 0 
0 0 0 0 0 0 0 1.98326e-09 0 
0 1.59149e-09 0 0 0 1.20057e-09 0 1.80832e-09 0 
1.84733e-09 0 8.11337e-10 1.39949e-09 1.0977e-09 0 0 0 0 
0 0 0 0 0 0 0 0 0 
0 0 0 0 0 0 0 0 0 
0 0 0 0 0 0 0 0 0 
0 0 0 0 0 0 0 0 0 
0 0 0 7.28234e-10 2.01758e-09 4.22462e-09 6.46949e-07 5.28228e-09 0 
0 2.66735e-09 3.64515e-09 0 0 0 0 0 6.76114e-11 
0 0 0 0 0 0 0 0 1.48112e-09 
0 0 0 0 0 0 1.86108e-09 0 1.19262e-09 
0 0 1.07131e-09 0 0 0 0 0 0 
0 0 0 0 0 0 2.87599e-10 0 0 
0 6.68524e-07 9.93389e-10 0 0 0 0 0 0 
0 0 0 0 0 0 0 1.66694e-09 0 
0 0 0 0 0 0 0 0 0 
0 0 0 0 0 0 0 0 0 
0 0 0 0 0 0 0 0 0 
0 0 0 0 0 1.04452e-09 0 0 5.16404e-09 
2.07424e-09 0 1.28064e-09 0 1.54609e-09 0 0 0 0 
0 6.8304e-10 0 0 0 0 0 0 0 
1.51212e-09 0 0 0 0 0 0 3.17849e-09 0 
1.46974e-09 0 0 0 0 0 0 0 0 
0 0 7.30667e-10 0 0 1.6999e-09 2.12065e-10 0 0 
0 0 0 0 6.55554e-10 0 0 0 1.76658e-09 
0 0 0 0 0 0 1.27578e-09 4.90515e-09 0 
0 0 0 0 0 0 0 0 0 
0 0 0 0 0 0 0 0 0 
0 0 0 0 0 0 0 0 0 
0 0 0 0 0 0 0 0 0 
0 0 0 0 0 0 0 0 0 
0 0 0 0 0 0 0 0 0 
0 0 0 0 0 2.0361e-09 0 0 2.6591e-10 
0 5.80054e-10 0 0 0 0 0 0 0 
0 0 0 0 0 0 0 4.4117e-09 0 
0 0 0 0 0 1.57573e-09 0 0 0 
0 0 0 0 0 0 0 0 0 
7.18967e-07 0 1.81705e-09 1.55789e-09 0 0 0 0 0 
0 0 0 0 0 0 0 0 0 
0 0 0 0 0 0 0 0 0 
0 0 0 0 0 1.42759e-09 0 0 0 
0 0 0 0 0 0 0 1.68258e-09 0 
0 0 6.33244e-10 3.43544e-10 0 0 8.54144e-10 0 0 
3.33282e-10 0 0 0 1.73196e-09 0 0 8.76701e-07 8.7393e-07 
0 0 0 0 0 0 0 0 5.3462e-10 
0 0 0 0 0 0 0 0 6.46694e-07 
0 0 0 2.22256e-10 0 0 0 0 0 
0 6.54961e-07 0 0 0 0 0 0 2.83396e-09 
5.80131e-09 0 0 0 0 0 0 0 0 
0 0 0 0 0 0 0 0 0 
0 0 0 0 0 0 0 0 0 
7.33755e-10 0 0 0 0 0 0 1.0814e-09 0 
0 0 0 0 0 0 0 0 0 
1.15527e-09 0 0 0 0 7.38996e-10 0 0 0 
0 0 0 0 0 1.6445e-09 0 0 3.34147e-09 
0 0 2.31378e-09 1.82533e-10 0 0 6.45878e-07 1.94261e-09 0 
1.02459e-09 0 0 0 0 0 0 2.82504e-09 0 
0 0 0 0 0 0 4.55172e-09 0 0 
0 0 1.36623e-09 1.88528e-10 3.85291e-09 0 1.08172e-09 0 1.1448e-09 
1.55938e-09 0 7.25798e-07 0 0 0 0 0 0 
0 0 0 0 0 0 0 0 0 
0 0 0 0 0 0 0 0 0 
0 0 0 1.05318e-09 1.10265e-09 2.09534e-10 0 0 0 
0 0 0 0 0 0 0 0 0 
0 0 2.99396e-09 0 8.31539e-10 0 1.02297e-09 2.16559e-10 0 
0 0 0 0 0 0 0 1.98727e-09 0 
4.32997e-09 0 0 0 2.3647e-09 0 0 2.60316e-09 8.75652e-10 
0 0 1.16781e-09 0 0 0 0 6.23516e-10 0 
0 0 1.68e-09 9.23589e-10 0 0 8.95741e-09 6.54574e-07 4.76914e-09 
0 0 0 0 0 0 0 5.53101e-10 0 
0 0 3.82135e-09 0 0 5.24659e-10 0 0 0 
0 0 0 0 0 0 0 0 0 
0 0 0 0 0 0 0 0 0 
0 0 0 0 0 0 0 0 0 
7.18799e-07 0 0 0 0 0 0 0 0 
0 0 4.28651e-09 6.47019e-07 0 0 1.66931e-09 3.59368e-09 6.99002e-07 
0 2.45957e-09 1.48989e-09 0 0 0 0 1.21019e-09 0 
0 0 0 0 1.3614e-09 0 0 0 0 
0 0 0 0 0 0 0 0 5.44555e-10 
0 0 1.17115e-09 0 1.81495e-09 0 0 0 3.1112e-09 
0 0 2.81251e-09 0 0 0 0 1.27833e-09 0 
0 0 0 2.91337e-09 0 0 2.55662e-09 0 0 
0 0 0 0 0 0 0 0 0 
0 0 0 0 0 0 0 0 0 
0 0 0 6.59837e-07 0 0 0 0 7.75659e-07 
0 0 0 0 0 0 0 0 0 
0 0 0 0 0 0 0 0 0 
0 0 7.06207e-07 0 0 3.90277e-09 0 0 0 
0 9.97382e-10 2.88037e-09 7.15109e-11 0 6.60358e-10 0 0 0 
1.19138e-09 0 0 0 0 0 0 0 0 
0 1.13039e-09 0 0 0 0 0 0 0 
0 0 0 0 0 6.56179e-07 0 0 1.35753e-09 
0 4.79239e-10 0 0 6.49751e-10 1.00226e-09 0 1.41804e-09 0 
0 0 0 0 0 0 0 0 0 
0 0 0 0 0 0 0 0 0 
0 0 1.41047e-09 3.93269e-09 0 0 0 0 0 
0 0 3.55882e-09 2.35654e-09 0 0 9.6961e-10 0 0 
0 0 0 0 1.0684e-09 0 0 0 0 
1.59396e-09 0 0 0 0 0 2.24467e-09 5.95455e-09 3.55561e-09 
0 5.88328e-09 7.04306e-07 0 0 1.86242e-10 0 0 0 
0 0 0 0 3.77522e-09 2.87997e-09 4.7014e-09 1.61446e-09 0 
0 0 4.60051e-10 0 0 0 1.94917e-09 0 0 
0 0 2.54296e-09 0 0 0 0 0 0 
0 0 0 0 0 6.73283e-07 0 0 0 
3.3301e-10 0 0 0 0 0 0 0 0 
0 0 0 0 0 0 0 0 0 
0 0 0 0 0 0 1.3175e-09 0 7.1148e-07 
9.17508e-09 1.09401e-09 7.43621e-07 4.73652e-09 2.52338e-09 0 0 0 0 
0 8.67644e-10 0 0 0 0 0 0 0 
0 1.07834e-09 1.48078e-09 0 0 0 0 0 0 
0 0 0 7.33804e-09 0 0 0 0 0 
0 0 0 0 1.23859e-09 0 6.59248e-07 4.65891e-09 2.5392e-09 
0 0 0 0 0 0 6.50351e-07 2.21193e-09 1.59063e-09 
0 0 6.83567e-09 3.6923e-09 2.60357e-09 0 0 0 8.50302e-10 
0 0 0 0 0 0 0 0 0 
0 0 0 0 0 0 0 0 0 
0 0 0 0 0 0 0 0 0 
0 0 0 0 0 0 2.15021e-09 2.23824e-09 0 
0 0 0 0 0 6.02435e-10 1.29146e-09 0 2.95739e-09 
0 0 2.89262e-09 1.65398e-09 0 0 0 0 0 
0 0 3.82637e-10 0 0 0 0 0 0 
7.02407e-07 0 0 7.23931e-07 4.65755e-09 0 0 0 0 
0 0 0 0 0 0 0 2.66843e-09 0 
0 0 0 1.71579e-09 1.29855e-09 0 4.45899e-09 0 3.63701e-09 
0 0 4.14029e-09 6.50662e-07 0 0 1.19854e-09 0 9.81027e-10 
0 0 0 0 2.05466e-09 0 0 0 0 
0 0 4.66028e-10 0 0 0 0 0 0 
0 0 0 0 0 0 0 0 0 
0 0 0 0 0 0 0 0 4.62504e-10 
0 0 0 0 0 0 1.98773e-09 3.2301e-09 0 
0 8.71973e-07 0 0 0 0 0 0 0 
0 0 0 0 0 0 0 7.21088e-07 0 
5.65139e-09 0 0 0 0 0 0 0 0 
0 0 0 3.46506e-10 1.67031e-09 2.59293e-09 2.18307e-09 3.7354e-09 0 
0 0 0 0 0 0 0 0 0 
0 0 0 8.36404e-11 0 0 0 0 0 
0 0 0 0 0 0 0 6.76071e-07 4.42737e-09 
0 0 0 0 0 0 0 0 0 
0 0 0 0 0 0 0 0 0 
0 0 0 0 0 0 0 0 1.48385e-10 
0 1.16652e-09 1.15191e-09 0 1.642e-09 0 0 3.05032e-10 0 
3.76993e-09 0 8.85123e-07 0 0 0 0 0 0 
0 0 0 0 0 2.86826e-09 0 5.8888e-09 0 
0 0 3.19568e-09 2.90003e-09 0 0 0 0 1.30109e-09 
0 0 0 0 0 0 0 5.20897e-07 6.0247e-10 
0 3.24488e-09 0 0 0 0 2.46028e-09 3.50549e-09 0 
0 0 1.11127e-09 1.88009e-09 0 0 0 0 0 
0 0 0 0 0 0 1.8962e-09 0 0 
0 0 0 0 0 0 0 0 0 
0 0 0 0 0 0 0 0 0 
0 0 0 0 0 0 0 0 0 
0 0 0 0 0 0 6.93964e-10 0 0 
0 0 0 0 0 5.61887e-09 6.84806e-07 4.44607e-09 0 
0 0 0 0 7.38656e-10 0 0 0 0 
0 0 0 0 0 0 0 0 0 
0 0 0 0 0 0 0 0 5.66376e-09 
0 0 0 0 7.48704e-07 0 8.05064e-07 0 0 
0 0 0 0 0 0 0 0 0 
0 0 0 0 0 3.65511e-09 6.55958e-07 0 0 
0 0 0 0 0 0 0 0 0 
0 0 0 0 0 0 0 0 0 
0 0 0 0 0 0 0 0 0 
0 0 0 0 0 0 0 0 0 
2.25544e-09 1.42335e-09 0 0 0 0 1.49818e-09 4.43826e-09 8.08916e-10 
0 1.70597e-09 0 0 0 0 0 0 0 
8.99393e-07 9.13696e-07 0 4.01106e-09 4.67168e-10 1.38887e-10 0 0 4.64299e-09 
0 0 0 0 0 0 0 0 0 
6.75771e-10 1.40824e-09 1.86993e-09 0 0 0 0 3.73551e-09 0 
1.87278e-09 0 0 0 0 1.01726e-09 8.24999e-10 0 0 
0 0 0 0 0 0 2.26977e-09 2.49324e-09 0 
2.611e-09 0 0 0 0 0 0 0 0 
0 0 0 0 0 0 0 0 0 
0 0 0 0 0 0 0 0 0 
0 0 0 0 0 0 0 0 0 
0 0 0 2.31024e-09 0 0 0 0 0 
0 8.54031e-10 0 0 0 0 0 0 2.96057e-09 
0 0 0 0 4.36616e-09 0 0 0 3.58292e-09 
0 0 2.08279e-09 0 3.86437e-09 0 0 0 0 
0 2.68311e-09 0 0 0 0 0 0 3.41908e-09 
8.77656e-07 0 0 7.35763e-07 0 1.3407e-09 1.59393e-09 0 0 
0 0 0 0 0 0 0 0 0 
0 0 0 0 0 0 0 0 0 
0 0 0 0 0 0 0 0 0 
0 0 0 0 0 0 0 0 0 
0 0 0 0 0 0 0 0 0 
0 0 0 3.57834e-09 7.14472e-07 0 9.08697e-09 0 0 
4.18552e-09 3.44235e-09 0 2.17503e-09 0 0 0 0 1.12575e-09 
0 0 0 0 0 0 0 0 0 
0 7.62227e-07 0 0 0 6.58799e-07 0 9.90712e-10 6.19397e-10 
0 7.13951e-10 0 0 1.55793e-09 0 0 0 0 
8.32088e-07 0 0 0 2.81768e-09 0 0 0 0 
0 0 0 0 0 0 0 0 0 
0 0 0 5.44104e-10 4.15999e-10 0 0 0 0 
0 0 0 0 0 0 0 0 0 
0 0 0 0 0 0 0 0 0 
0 0 0 0 0 0 0 0 0 
0 0 7.85598e-10 0 0 0 0 7.79121e-07 4.4436e-09 
0 0 0 6.54194e-07 0 0 1.57025e-09 4.51915e-10 0 
0 1.86282e-09 0 0 7.12447e-07 0 0 0 0 
0 0 1.01752e-08 0 0 0 4.22216e-09 0 1.41646e-09 
0 0 0 0 0 0 6.84953e-10 0 0 
0 0 9.91576e-10 0 7.48275e-07 6.81451e-09 0 0 0 
0 0 0 0 0 0 0 0 0 
0 0 0 0 0 0 0 0 0 
0 0 0 0 0 0 0 0 0 
0 0 0 0 0 0 0 0 0 
0 0 0 0 0 0 0 0 0 
0 0 0 0 0 0 0 0 5.39328e-09 
3.421e-09 0 0 3.90816e-09 4.53865e-09 0 1.52525e-09 0 0 
0 0 0 0 0 0 0 1.07712e-09 8.35438e-09 
0 8.81148e-07 0 8.21284e-07 2.49981e-09 4.03258e-09 0 0 3.78228e-09 
0 0 0 0 0 0 0 0 0 
0 0 2.36339e-09 0 0 0 0 0 0 
3.91353e-10 0 0 0 0 0 0 0 0 
0 0 0 0 0 0 0 0 0 
0 0 0 0 0 0 0 0 0 
0 0 0 0 0 0 0 0 0 
0 0 0 0 0 0 8.55885e-10 0 0 
0 0 0 0 0 0 1.82829e-09 2.32658e-09 1.02072e-08 
7.33215e-07 0 0 1.32889e-09 0 0 0 1.33332e-09 0 
0 0 0 0 0 0 0 8.9438e-09 0 
0 8.59826e-07 0 0 0 0 0 0 0 
0 0 0 0 0 6.67458e-07 0 3.43338e-09 0 
0 1.53265e-09 0 0 4.15398e-09 0 0 0 0 
0 0 0 0 0 0 0 0 0 
0 0 5.25091e-10 0 0 0 0 0 0 
0 0 0 0 0 0 0 0 0 
0 0 0 0 0 0 0 0 0 
0 0 0 0 0 0 0 6.44079e-07 0 
0 0 0 0 0 0 0 0 0 
0 0 1.95574e-09 0 2.03954e-09 0 2.45797e-09 1.50336e-09 0 
0 0 0 6.77072e-10 0 0 0 0 0 
7.54942e-07 0 0 0 0 0 0 0 0 
0 0 0 1.36639e-09 0 0 5.00586e-09 0 3.12315e-09 
0 0 0 0 0 0 2.37399e-09 0 1.1202e-09 
1.07279e-09 0 0 0 0 0 0 0 0 
0 0 0 0 0 0 0 0 0 
4.62968e-10 0 0 0 0 0 0 0 0 
0 0 0 0 0 0 0 0 0 
0 0 0 0 0 0 2.32516e-09 2.10963e-09 0 
0 0 0 0 0 0 0 0 0 
0 3.26142e-09 0 0 0 0 0 0 0 
0 0 0 0 7.05657e-10 0 0 3.222e-09 0 
0 0 0 0 0 0 6.67954e-10 1.09458e-09 0 
0 0 0 0 0 0 0 0 0 
4.76454e-09 0 0 8.46166e-07 0 8.42023e-07 8.8624e-09 0 7.10455e-10 
0 0 0 0 0 0 0 0 8.37286e-11 
0 0 0 0 3.50212e-09 0 0 0 0 
2.24789e-09 1.05029e-09 0 0 0 0 0 0 0 
0 0 0 0 0 0 0 0 0 
0 0 0 0 0 0 0 0 0 
0 0 0 0 1.48756e-09 3.08701e-09 0 0 0 
0 0 0 0 0 0 0 0 0 
0 0 0 0 2.96773e-10 0 0 0 0 
1.61333e-09 0 5.04881e-09 0 0 4.2092e-09 0 0 0 
0 0 0 0 5.53231e-10 0 0 0 0 
6.75946e-07 2.84658e-09 0 0 0 8.80427e-07 0 3.78138e-09 2.5761e-09 
0 0 2.38611e-10 0 0 0 0 0 0 
4.30982e-10 0 1.38372e-09 0 4.45926e-09 0 0 0 7.17135e-07 
2.14369e-09 0 0 0 0 0 0 0 0 
0 0 0 0 0 0 0 0 0 
0 0 0 0 0 0 1.01626e-10 0 0 
0 0 7.95554e-10 0 0 0 0 6.44204e-07 0 
0 1.27753e-09 0 0 0 0 0 0 0 
0 0 0 0 6.48424e-07 0 0 0 0 
0 0 0 0 9.07147e-07 8.93465e-07 0 0 0 
0 0 0 0 0 0 0 0 0 
2.59158e-09 8.82084e-09 0 0 0 1.43215e-09 0 0 1.76273e-09 
0 0 0 3.50858e-10 0 0 0 0 0 
1.53099e-09 0 0 0 0 1.22604e-08 6.99919e-07 0 0 
0 0 0 0 0 0 0 0 0 
0 0 0 0 0 0 0 0 0 
0 0 0 0 0 0 0 0 0 
0 0 0 0 0 0 0 1.34225e-09 1.81552e-09 
0 0 0 0 0 0 0 0 0 
3.2294e-10 0 0 0 2.92919e-09 0 0 2.37955e-09 0 
0 0 0 0 0 1.13238e-08 0 0 0 
0 0 0 0 0 0 0 0 0 
0 0 0 0 0 0 0 0 3.32117e-11 
0 0 0 0 0 0 0 0 0 
0 0 1.64754e-09 0 0 0 0 2.01555e-09 0 
5.06951e-09 0 7.11426e-07 0 0 0 0 0 0 
0 0 0 0 0 0 0 0 0 
0 0 0 0 0 0 0 0 0 
2.90666e-10 3.52359e-10 0 0 7.6298e-10 0 0 0 0 
1.3321e-09 0 0 0 0 0 0 0 0 
0 0 0 0 0 2.53562e-09 0 0 6.32269e-10 
0 0 0 0 9.70514e-10 0 0 0 3.47791e-09 
3.21681e-10 0 0 0 0 0 0 0 0 
0 0 0 0 0 0 1.75703e-09 0 3.00069e-09 
2.5837e-09 0 0 0 0 0 0 0 0 
0 0 0 0 0 0 6.87596e-07 1.12968e-09 1.40353e-09 
0 0 3.56249e-09 2.44759e-09 0 0 0 0 0 
0 0 0 0 0 0 0 0 0 
0 0 0 0 0 0 0 0 0 
0 0 0 0 0 0 0 0 0 
0 0 0 4.69668e-10 0 0 0 0 0 
0 0 0 8.76993e-10 0 0 0 1.858e-09 1.37519e-09 
0 0 0 0 1.99456e-09 8.59644e-09 6.77668e-07 0 0 
1.51725e-09 0 9.7422e-10 0 0 0 0 0 0 
0 0 0 0 0 0 8.73072e-10 0 0 
0 0 0 0 0 0 3.93884e-09 3.17196e-09 0 
0 0 0 6.54379e-07 0 1.86457e-09 7.01174e-10 0 0 
3.6542e-09 0 0 0 0 2.48464e-09 0 0 0 
0 0 0 0 0 0 0 0 0 
0 0 0 0 0 0 0 0 0 
0 0 0 1.46126e-09 0 2.00141e-09 0 0 0 
1.10271e-09 0 0 0 0 0 0 0 0 
0 0 0 0 0 0 6.4821e-07 0 0 
0 0 0 0 0 0 0 0 3.4254e-09 
0 0 1.01543e-09 0 0 0 0 0 0 
0 0 0 0 0 0 0 0 0 
0 0 0 0 0 2.52162e-09 6.05621e-09 6.49582e-07 0 
0 0 0 0 8.45795e-09 3.83523e-09 0 0 0 
0 1.51031e-09 0 0 0 0 0 1.04063e-09 1.58069e-09 
0 4.41392e-10 0 0 0 0 0 0 0 
0 0 0 0 0 0 0 0 0 
0 0 0 0 0 7.4588e-10 6.44491e-07 4.52577e-09 3.58824e-09 
0 0 0 0 0 0 0 0 0 
0 0 0 0 0 1.01755e-09 1.89879e-09 0 0 
0 0 0 0 0 0 7.80052e-10 1.23103e-09 0 
2.66502e-09 0 0 0 0 0 0 6.77642e-07 0 
0 8.96691e-10 0 0 0 0 0 0 0 
0 0 0 0 4.20677e-09 0 0 2.84499e-09 0 
0 0 0 8.67611e-10 0 0 0 0 0 
0 0 0 3.72408e-09 0 0 0 6.60465e-07 0 
0 0 4.26357e-10 0 0 0 0 0 0 
0 0 0 0 0 0 0 0 0 
0 0 0 0 9.74189e-10 0 0 0 2.47168e-09 
0 0 0 0 0 0 0 0 0 
0 5.216e-10 0 0 0 0 0 0 6.52531e-10 
0 8.97613e-10 0 0 0 0 0 0 3.86648e-10 
0 0 0 0 3.94709e-10 0 2.47522e-09 0 0 
0 0 0 0 0 0 0 0 0 
0 0 0 0 0 6.48647e-07 4.34034e-09 4.37515e-09 0 
0 0 0 0 0 1.13335e-09 0 0 0 
3.39766e-09 0 6.57239e-07 3.10422e-09 0 1.88031e-09 0 1.74985e-09 0 
0 0 0 0 0 0 0 0 0 
0 0 0 0 0 0 0 0 0 
0 0 0 0 0 0 0 0 0 
1.59498e-09 5.84658e-10 0 0 0 0 0 0 0 
0 0 0 0 5.93273e-10 0 0 0 0 
0 0 1.11739e-09 0 0 0 0 6.56123e-10 0 
0 0 0 1.50758e-09 0 0 0 9.50867e-10 3.87555e-09 
0 0 0 9.85887e-07 9.138e-07 0 0 4.46036e-10 0 
0 0 0 0 0 0 0 0 0 
9.72847e-10 9.54292e-10 0 0 0 0 7.2907e-10 0 0 
0 0 0 0 0 0 0 0 0 
0 0 0 0 0 0 0 0 0 
0 0 0 0 0 0 0 0 0 
0 0 0 0 0 0 0 0 0 
1.16353e-09 0 0 0 0 0 0 0 0 
0 0 0 0 0 0 1.15608e-09 1.13637e-09 0 
0 0 0 0 0 0 0 5.01217e-10 0 
0 0 0 0 0 0 0 0 0 
0 0 0 8.31214e-07 0 0 6.85734e-09 0 0 
5.38482e-10 5.1715e-10 0 0 0 0 0 7.52786e-10 8.23449e-10 
0 0 0 0 0 0 0 0 0 
2.89494e-09 8.47916e-10 1.74576e-09 0 0 0 1.1213e-09 0 0 
0 0 1.87552e-09 0 0 0 0 0 0 
0 0 0 0 0 0 0 0 0 
0 0 0 0 0 0 0 0 5.78009e-10 
0 0 0 0 0 0 0 0 0 
0 0 0 0 0 0 1.95248e-09 0 0 
0 0 5.50984e-10 0 0 0 4.14358e-09 6.47175e-07 0 
0 0 0 0 1.68576e-09 0 0 0 0 
6.70584e-07 0 3.4356e-09 0 0 0 0 0 0 
0 0 0 0 0 0 0 0 0 
0 0 0 0 0 0 0 0 4.68516e-09 
6.6615e-07 0 0 1.42141e-09 1.17486e-09 0 0 0 0 
1.79044e-09 6.56822e-07 0 0 0 0 0 0 0 
0 0 0 0 0 0 0 0 0 
0 0 0 0 0 0 0 0 2.28119e-10 
0 0 0 5.82848e-09 0 0 0 0 0 
0 0 0 0 0 5.9063e-09 6.78833e-07 0 0 
0 0 0 1.15829e-09 0 0 0 3.35903e-09 0 
2.65391e-09 0 0 0 0 0 0 1.77501e-09 0 
0 6.08598e-09 0 0 0 0 0 3.5948e-09 3.70154e-10 
0 6.72098e-10 0 0 0 0 0 0 0 
0 0 0 0 0 0 0 0 0 
0 0 0 2.52273e-09 0 0 0 0 2.19006e-09 
0 1.11735e-08 0 0 0 0 0 0 0 
0 0 0 0 0 0 0 0 0 
0 0 0 0 0 0 0 0 0 
0 0 0 6.44168e-07 0 0 0 0 0 
0 0 0 0 6.79378e-07 0 0 0 5.59013e-09 
0 0 0 5.34216e-10 0 0 0 3.46637e-09 0 
2.04093e-09 2.13932e-09 0 0 0 0 1.08168e-09 1.15405e-09 6.5661e-07 
4.56709e-09 3.38638e-09 0 0 0 0 0 1.92702e-09 0 
0 0 0 0 0 0 6.89177e-10 0 0 
0 0 0 0 0 0 0 0 1.73668e-09 
0 0 0 0 0 2.13985e-09 0 0 5.25785e-09 
0 0 2.36871e-09 0 0 0 0 0 0 
0 0 0 0 0 0 0 0 0 
0 0 0 0 0 0 0 0 0 
0 0 0 0 2.09613e-09 0 0 0 1.25808e-09 
0 0 0 0 0 0 0 0 0 
0 1.91988e-09 0 1.59941e-09 0 0 3.66676e-09 0 0 
2.12449e-09 0 0 8.6742e-10 0 0 0 0 0 
1.15392e-09 2.442e-09 1.2687e-09 0 0 0 0 0 0 
0 0 1.54572e-09 6.68044e-07 4.94195e-09 0 0 8.05059e-10 0 
0 0 0 0 0 0 0 0 0 
0 0 0 0 0 1.54449e-09 0 2.21578e-09 0 
6.52349e-07 0 0 0 2.13755e-09 1.05976e-09 0 0 0 
0 0 0 0 0 0 0 0 0 
0 0 0 0 0 0 0 0 0 
0 0 0 9.76734e-10 0 0 0 0 9.37217e-10 
0 0 0 2.73333e-09 0 0 0 0 1.92051e-09 
2.32339e-09 2.47339e-09 7.37924e-07 3.61915e-09 0 0 0 6.63178e-07 2.47679e-09 
0 0 0 5.9857e-10 0 2.60451e-09 0 0 0 
8.29107e-10 2.07462e-09 0 3.15287e-10 0 0 0 0 0 
0 0 0 0 0 0 0 0 7.80287e-10 
0 0 0 0 0 0 0 0 0 
0 0 0 9.83003e-07 1.08419e-06 0 0 0 0 
0 0 0 0 0 0 0 0 0 
0 0 0 0 0 0 0 0 0 
0 0 0 0 0 0 0 0 0 
0 0 0 0 0 0 0 0 0 
0 6.23752e-10 0 0 0 7.07968e-07 2.20316e-09 0 1.85647e-09 
0 0 4.12253e-09 1.12185e-09 0 0 0 0 2.21372e-09 
2.24363e-09 0 0 0 0 6.71935e-07 1.96042e-09 1.26906e-09 1.67121e-09 
0 0 0 0 0 0 0 0 0 
6.22514e-10 0 0 0 0 0 3.92691e-09 0 5.37969e-10 
0 0 0 0 0 0 0 0 0 
0 0 0 0 0 9.49444e-07 0 0 3.90356e-09 
1.6862e-09 0 0 0 0 7.76631e-10 0 0 7.66489e-07 
0 0 1.50114e-09 9.79805e-12 0 0 0 0 0 
0 0 0 0 0 0 0 0 0 
0 0 0 0 0 0 0 0 0 
0 0 0 0 0 0 1.46214e-09 0 1.15508e-09 
0 0 0 0 7.43791e-07 0 2.25535e-09 0 2.99298e-09 
0 0 0 3.98121e-09 0 0 0 0 0 
2.24906e-09 0 1.8568e-10 0 0 0 0 0 0 
0 0 0 0 0 0 0 6.80486e-07 0 
0 1.83489e-09 4.83484e-10 0 0 0 0 0 0 
0 0 0 1.21605e-09 0 0 0 0 0 
2.16655e-09 3.58948e-09 0 0 0 0 0 0 0 
0 7.70166e-07 0 0 0 0 0 0 0 
0 0 0 0 0 0 0 0 0 
0 0 0 0 0 0 0 0 0 
0 0 0 0 0 6.54261e-09 6.9597e-07 3.2227e-09 0 
4.11828e-09 0 0 2.0258e-09 0 0 0 0 1.71304e-09 
0 0 3.69483e-09 6.64575e-07 9.04857e-10 9.82292e-10 0 1.60325e-09 0 
0 0 1.2421e-09 0 1.64128e-09 0 9.13871e-10 0 0 
0 0 2.27597e-09 7.63274e-07 8.10762e-09 0 0 0 0 
1.88865e-09 0 7.58488e-09 0 7.92918e-10 0 0 1.0078e-09 1.14122e-09 
0 0 1.16158e-09 0 0 0 0 4.41885e-09 1.15172e-09 
0 6.68338e-07 3.68243e-09 2.03471e-09 0 9.71458e-10 0 0 0 
0 0 0 3.15463e-09 0 0 0 0 0 
0 0 0 0 0 0 0 0 0 
0 0 0 0 0 0 0 0 0 
0 0 0 0 0 0 2.87445e-09 0 0 
0 0 0 4.33889e-10 0 0 7.17769e-10 0 2.60246e-09 
0 0 0 0 0 1.00647e-08 0 1.65651e-09 0 
6.72111e-07 0 2.34657e-09 0 0 2.93317e-09 0 0 0 
0 0 0 0 0 7.66115e-07 0 1.63294e-09 0 
0 0 0 4.40026e-09 0 0 2.60514e-09 1.31196e-09 0 
0 3.82083e-10 0 0 0 0 0 0 0 
0 2.70406e-09 0 1.52715e-09 0 0 0 0 0 
0 0 0 0 2.61822e-09 0 0 0 0 
0 0 0 0 0 0 0 0 0 
0 0 0 0 0 0 0 0 0 
0 0 0 0 0 0 0 0 0 
0 1.41353e-09 0 0 0 0 0 0 6.74509e-07 
0 0 1.92284e-09 2.05421e-09 9.93521e-10 0 0 3.96378e-09 0 
0 0 0 0 0 0 6.61959e-07 0 0 
0 0 0 1.50586e-09 0 0 0 0 0 
0 0 0 0 0 9.64018e-07 1.77225e-09 0 0 
0 0 3.1098e-09 0 6.5558e-07 0 0 0 0 
0 1.88122e-09 2.73415e-09 0 0 0 0 0 0 
0 0 4.88603e-09 0 0 0 0 7.29187e-10 0 
0 0 0 0 0 0 0 0 0 
0 0 0 0 0 0 0 0 0 
0 0 0 0 0 0 0 0 0 
0 0 0 0 0 0 0 0 0 
0 0 0 0 0 0 0 0 0 
0 7.43255e-10 0 1.32349e-09 0 0 0 0 0 
1.60257e-09 1.12493e-09 0 0 0 0 1.88747e-09 0 0 
0 0 0 0 0 0 0 0 0 
0 0 0 0 0 4.17783e-09 2.77166e-09 0 0 
0 0 0 0 0 0 9.30238e-10 0 0 
3.33342e-09 0 0 5.00988e-09 8.23395e-07 0 0 0 0 
0 0 0 0 0 0 0 0 0 
0 0 0 0 0 0 0 0 0 
0 0 0 0 0 0 0 0 0 
0 1.10036e-09 0 0 0 0 0 5.85534e-10 0 
0 0 0 2.4359e-09 0 0 0 0 0 
0 0 1.65819e-09 0 0 3.40429e-09 2.89398e-09 0 2.5099e-09 
0 1.7029e-09 1.46245e-09 0 0 0 0 0 0 
0 0 0 0 0 0 0 1.00383e-06 9.84869e-09 
0 0 0 0 2.22098e-09 0 0 0 2.50482e-09 
0 5.87463e-10 0 2.31031e-09 0 0 0 0 0 
0 0 3.77119e-09 0 9.82873e-07 0 0 0 0 
0 0 0 0 0 0 0 0 0 
0 0 0 0 0 0 0 0 0 
0 0 0 0 0 0 0 0 1.7426e-09 
6.63929e-09 0 1.2238e-09 0 0 0 0 0 6.51446e-07 
4.31487e-09 0 0 1.74737e-09 0 0 2.0322e-09 0 6.58356e-10 
0 0 0 0 0 1.07314e-09 0 6.71992e-07 0 
0 0 0 0 0 0 0 0 0 
6.96541e-10 0 0 0 2.68529e-09 0 0 0 9.42315e-07 
0 0 0 0 7.48183e-07 0 0 1.00785e-10 0 
0 0 0 0 0 0 0 1.86751e-09 0 
0 6.77719e-07 1.29858e-09 0 0 9.19371e-07 0 0 0 
1.15424e-09 0 0 0 0 0 0 0 0 
0 0 0 0 0 0 0 0 0 
0 0 0 0 0 0 0 0 0 
0 0 0 6.27636e-10 3.8074e-10 0 1.23242e-09 0 0 
2.80224e-09 2.14225e-09 0 1.23659e-09 0 0 0 0 0 
0 0 0 0 0 0 0 0 9.31262e-10 
0 1.32201e-09 2.47903e-09 0 0 2.51608e-09 0 0 0 
1.29978e-09 0 0 2.10949e-09 0 9.62852e-10 1.51352e-09 0 0 
6.24089e-09 0 0 9.50039e-07 0 1.40832e-09 0 3.81311e-09 0 
0 4.33407e-09 0 1.84549e-09 3.50499e-09 0 6.65685e-07 0 0 
1.82664e-09 0 3.92959e-09 1.45964e-09 3.62581e-09 0 0 0 0 
0 0 4.85167e-10 0 0 0 0 0 0 
0 0 0 0 0 0 0 0 0 
0 0 0 0 0 0 0 0 0 
0 5.44993e-09 6.77251e-07 5.63714e-09 0 6.72218e-10 0 0 0 
0 0 3.17268e-09 0 0 0 6.57546e-10 1.14155e-09 6.52163e-07 
0 1.45921e-09 0 0 0 0 0 0 0 
0 0 6.9197e-09 7.38562e-07 0 3.52299e-09 0 1.70336e-09 0 
0 1.67082e-09 0 1.58525e-09 0 0 0 0 0 
0 0 1.31017e-09 0 9.14157e-07 0 0 4.19833e-09 0 
6.97586e-07 0 0 6.86769e-07 4.6158e-09 0 0 4.74148e-09 2.94346e-09 
0 2.24708e-09 4.00029e-09 0 0 0 0 0 0 
0 5.57408e-10 0 0 0 0 0 0 0 
0 0 0 0 0 0 0 0 0 
0 0 0 0 0 0 3.41913e-10 0 0 
0 0 0 0 0 0 0 0 0 
0 0 0 0 0 0 0 0 0 
1.13099e-09 0 0 0 4.44122e-10 0 0 0 0 
1.19052e-09 0 0 0 0 0 7.66966e-07 0 6.35437e-10 
0 0 0 0 0 0 0 0 0 
0 0 0 0 0 0 0 7.30385e-10 0 
0 0 0 0 4.13082e-09 0 6.02105e-09 0 0 
0 0 0 0 0 5.15385e-09 4.59639e-09 0 0 
0 0 0 0 0 0 0 0 0 
0 0 0 0 0 0 0 0 0 
0 0 0 0 0 0 0 0 0 
0 0 0 0 0 3.23925e-09 0 6.70111e-10 0 
0 4.93852e-10 2.91481e-09 7.63747e-10 0 0 0 0 1.01559e-09 
1.44087e-10 0 0 0 0 0 0 0 0 
0 0 2.24879e-09 1.38189e-09 0 0 0 1.08637e-09 2.74487e-09 
2.98327e-09 0 0 0 6.8004e-07 0 0 0 0 
0 0 1.48738e-09 0 0 0 0 0 0 
0 0 6.8732e-10 0 0 0 0 6.32628e-09 0 
1.08349e-09 0 4.15015e-09 0 0 7.79035e-07 0 0 4.56784e-10 
0 0 0 0 0 0 0 0 0 
0 0 0 0 0 0 0 0 0 
0 0 0 0 0 0 0 0 0 
1.0392e-09 0 0 8.7598e-07 8.93438e-07 0 0 1.70896e-10 0 
0 0 0 6.20903e-09 0 0 0 0 0 
2.17478e-09 0 0 1.83327e-09 0 0 0 0 0 
0 0 0 0 0 0 0 8.78153e-07 1.23584e-09 
0 0 0 0 4.59446e-09 1.76614e-09 0 0 6.75e-07 
0 1.32896e-09 0 0 6.60937e-07 0 0 0 0 
0 0 0 2.40347e-09 1.54575e-09 0 3.3988e-09 0 0 
0 0 6.84473e-07 0 0 0 0 7.67283e-07 0 
0 0 0 0 0 0 0 0 0 
0 0 0 0 0 0 0 0 0 
0 0 0 0 0 0 0 0 0 
0 1.48674e-09 0 0 0 0 5.61983e-09 0 0 
1.80053e-09 1.52935e-09 0 0 0 6.44834e-07 7.47441e-09 2.91399e-09 7.87032e-10 
0 8.16069e-10 0 1.73117e-09 6.51273e-07 2.59898e-09 1.69358e-09 0 0 
6.06963e-10 0 4.74206e-10 0 0 0 0 0 0 
0 0 0 0 4.85095e-09 0 0 0 8.61014e-10 
0 5.3624e-09 0 0 0 0 0 0 0 
1.68441e-09 0 6.59491e-07 0 0 0 2.34551e-09 3.76586e-10 0 
6.84045e-07 0 0 2.78288e-09 0 1.31497e-09 0 0 0 
0 0 0 0 0 0 0 0 0 
0 0 0 0 0 0 0 0 0 
0 0 0 0 0 0 0 0 0 
0 0 8.35703e-10 9.61527e-10 1.8601e-09 0 0 0 0 
0 0 1.36389e-09 4.8116e-10 0 0 0 0 1.65844e-09 
0 0 0 0 0 3.59641e-09 0 0 0 
0 7.70716e-10 0 0 0 0 0 9.92674e-07 1.15635e-06 
1.04966e-06 0 0 1.53665e-09 7.74618e-07 0 0 3.26448e-09 4.27605e-09 
0 0 3.21125e-09 0 0 0 0 0 0 
0 0 2.10297e-09 2.80429e-09 0 5.70568e-10 3.15291e-09 1.05137e-09 3.8573e-11 
1.40339e-09 0 0 0 0 8.19899e-10 0 1.55786e-09 8.12337e-10 
3.10662e-09 0 1.00349e-09 0 0 0 0 0 0 
0 0 0 0 0 0 0 0 0 
0 0 0 0 0 0 0 0 0 
0 0 0 0 0 5.34963e-09 0 0 7.01834e-09 
8.75001e-07 0 0 1.28213e-09 0 0 0 0 0 
0 0 0 0 0 1.02197e-09 1.81119e-09 0 0 
0 0 0 0 0 0 0 0 0 
1.79375e-09 0 0 0 0 0 5.51952e-09 7.35015e-07 0 
0 3.64903e-09 0 0 0 0 0 0 0 
0 4.43288e-10 0 0 0 0 0 0 6.62712e-07 
1.28621e-09 0 0 0 2.7368e-09 1.08554e-09 0 0 0 
0 0 3.34906e-11 0 0 0 0 0 0 
0 0 0 0 0 0 0 0 0 
0 0 0 0 0 0 0 0 0 
0 0 0 0 0 0 0 0 4.14222e-09 
0 8.65053e-07 0 0 0 0 0 1.14071e-09 0 
7.62266e-10 0 0 0 0 0 0 0 9.47261e-10 
0 0 0 0 0 0 0 0 0 
0 2.11467e-09 0 2.08523e-09 0 7.41062e-07 0 0 3.72206e-09 
0 0 0 0 3.98584e-10 0 0 0 0 
0 0 0 0 0 0 0 0 0 
0 0 0 0 0 2.07784e-09 0 0 0 
0 4.27535e-10 0 0 0 0 0 0 0 
0 0 0 0 0 0 0 0 0 
0 0 0 0 0 0 0 0 0 
0 0 0 0 1.08581e-09 0 1.10142e-09 0 0 
0 0 1.77955e-08 0 2.60647e-09 0 0 0 0 
0 0 0 0 0 0 0 0 0 
0 0 0 1.60736e-09 0 0 0 2.22805e-09 0 
4.39944e-09 7.10165e-07 3.01642e-09 0 0 0 6.8794e-09 3.55015e-09 5.49517e-09 
0 0 0 0 8.65273e-07 0 0 0 0 
0 0 0 0 0 0 0 3.32077e-10 0 
1.11359e-09 0 1.61315e-09 0 0 1.92793e-09 2.39591e-09 0 1.07344e-09 
1.22936e-09 4.28164e-10 0 0 0 0 0 0 0 
0 0 0 0 0 0 0 0 0 
0 0 0 0 0 0 0 0 0 
0 0 0 0 0 0 0 0 0 
0 0 1.69334e-09 0 0 0 5.62571e-10 0 0 
0 0 0 0 0 0 0 0 0 
0 0 0 0 0 2.99896e-09 6.46986e-07 5.40617e-09 1.33263e-09 
0 3.74398e-09 0 0 0 1.78968e-09 0 2.31287e-09 0 
0 0 0 0 2.45332e-09 8.61515e-07 0 3.61156e-09 1.63287e-09 
0 0 0 0 0 0 0 0 0 
0 0 0 0 4.45557e-10 6.66908e-10 0 0 2.30881e-09 
0 0 0 0 0 0 0 0 0 
0 0 0 0 0 0 0 0 0 
0 0 0 0 0 0 0 0 0 
0 0 0 0 0 0 0 3.91923e-09 0 
0 1.45072e-09 0 1.0072e-09 0 0 0 0 1.20631e-09 
0 0 0 0 0 0 0 0 0 
0 0 0 0 0 0 0 3.11425e-09 0 
0 0 0 2.03442e-09 0 0 0 0 0 
0 0 0 0 0 0 0 0 0 
0 0 0 0 0 0 0 0 0 
0 0 0 0 0 0 1.45025e-09 0 6.52384e-07 
0 1.72463e-09 0 0 0 0 0 0 0 
0 0 0 0 0 0 0 0 0 
0 0 0 0 0 0 0 0 0 
0 0 0 0 0 0 0 0 6.4425e-07 
0 0 9.84914e-10 0 2.1585e-09 3.38954e-09 0 3.96711e-10 1.00902e-09 
9.48476e-10 0 0 0 0 0 0 0 0 
0 0 0 0 0 0 0 0 7.11743e-10 
0 0 0 0 7.6137e-10 0 0 6.78607e-10 0 
0 0 0 0 0 1.44017e-09 0 4.95909e-09 0 
1.90536e-09 0 0 0 4.19013e-09 0 7.35013e-10 7.30067e-10 0 
0 0 0 0 0 0 0 0 3.40428e-09 
1.92451e-09 0 0 0 0 1.48555e-09 0 0 0 
0 0 0 0 0 0 0 0 0 
0 0 0 0 0 0 0 0 0 
0 0 0 0 0 0 0 0 2.1215e-09 
1.50499e-09 0 4.23909e-10 0 0 0 9.88066e-10 0 0 
0 0 0 0 0 0 0 0 0 
0 0 0 0 1.20828e-09 0 0 0 9.38902e-10 
0 0 0 0 0 8.5007e-10 0 0 0 
0 0 0 0 0 0 0 0 0 
0 0 2.38507e-09 0 1.21067e-09 6.82814e-07 0 3.05763e-09 0 
0 0 0 0 0 0 0 0 0 
0 0 0 0 0 0 0 1.23369e-09 0 
0 0 0 0 0 0 0 0 0 
0 0 0 0 0 0 0 0 0 
0 0 0 0 0 0 0 0 0 
0 2.18721e-09 1.70196e-09 1.17936e-09 0 0 0 3.12976e-09 6.59392e-07 
4.46862e-09 0 0 0 0 0 0 0 0 
3.73512e-10 4.1143e-10 0 0 2.35256e-10 9.38018e-10 0 0 0 
0 0 0 0 0 0 0 4.02052e-10 0 
0 0 0 0 0 0 0 0 1.43736e-09 
0 0 2.64857e-09 6.66456e-10 0 0 0 0 3.24997e-09 
0 0 0 0 0 0 0 0 0 
1.25906e-09 0 0 0 0 1.9662e-09 0 0 0 
1.99359e-11 0 0 0 0 0 0 0 0 
0 0 0 0 0 0 0 0 0 
0 0 0 0 0 0 0 0 0 
0 7.07709e-10 0 0 1.02356e-09 0 0 0 0 
0 0 4.37889e-09 0 6.7318e-07 0 0 1.58956e-09 0 
0 0 0 0 0 5.79293e-11 0 9.59269e-10 0 
0 0 0 0 9.27825e-10 0 0 2.57635e-09 0 
0 0 0 0 0 0 0 0 0 
0 6.70015e-10 0 0 0 6.79229e-07 6.41268e-09 0 0 
4.09052e-09 0 0 0 0 0 0 0 0 
0 6.37519e-10 2.03856e-09 0 6.52519e-07 4.13562e-09 0 0 2.7501e-09 
0 1.69703e-09 0 0 0 0 0 0 0 
0 0 0 0 0 0 0 0 0 
0 0 0 0 0 0 0 0 0 
0 0 0 0 0 0 0 0 0 
0 0 0 0 0 0 0 0 0 
0 0 0 0 3.70382e-09 0 0 2.69105e-09 0 
0 0 2.71962e-09 0 0 0 2.69088e-09 6.45495e-07 0 
4.54968e-09 0 0 0 0 0 0 0 0 
6.47035e-07 4.43067e-09 0 1.27725e-09 0 0 0 0 0 
1.4676e-08 6.62938e-07 0 2.22663e-09 0 0 0 0 0 
0 0 1.13556e-09 0 0 0 0 0 0 
0 0 8.56504e-07 0 0 0 0 0 0 
0 0 0 0 0 0 0 0 0 
0 0 0 0 0 0 0 0 0 
0 0 0 0 0 0 0 0 0 
0 0 0 0 0 0 4.68088e-09 0 0 
1.34421e-09 2.50694e-10 0 0 8.08435e-10 0 6.70923e-07 0 3.73305e-09 
0 0 0 0 0 0 2.23613e-09 5.74873e-10 0 
0 0 4.54028e-10 0 0 0 0 0 0 
0 0 1.57441e-09 0 0 0 3.61951e-09 0 0 
0 0 0 2.65181e-09 0 0 0 0 0 
0 0 0 0 0 0 0 0 8.75693e-10 
0 2.84212e-09 0 8.56729e-07 5.15848e-09 0 0 0 0 
0 0 0 0 0 0 0 0 0 
0 0 0 0 0 0 0 0 0 
0 0 0 0 0 0 0 0 1.13071e-09 
0 1.91995e-09 0 0 0 7.60819e-09 6.95447e-07 2.8424e-09 2.56507e-09 
9.40188e-10 2.68956e-09 0 0 0 0 0 0 0 
0 0 0 8.14085e-07 0 1.14342e-09 0 1.89964e-09 0 
0 0 1.85801e-10 0 0 0 0 0 0 
2.32623e-09 0 0 0 0 0 0 0 0 
7.43392e-10 0 0 0 0 0 2.8165e-10 0 0 
0 0 0 0 0 0 1.89696e-09 0 0 
0 0 0 0 0 0 1.38179e-09 0 4.01407e-10 
0 0 0 0 0 0 0 0 0 
0 0 0 0 0 0 0 0 0 
0 0 0 0 0 0 3.91909e-09 1.16587e-09 4.63644e-09 
0 1.21934e-09 0 2.65325e-09 8.11367e-07 0 0 0 3.04335e-09 
6.42731e-10 0 0 0 0 0 0 0 0 
0 0 7.35732e-07 0 2.3043e-09 7.87456e-07 9.09535e-09 0 0 