# vtk DataFile Version 5.1
vtk output
ASCII
DATASET STRUCTURED_POINTS
DIMENSIONS 100 100 1
SPACING 1 1 1
ORIGIN 0 0 0
POINT_DATA 10000
FIELD FieldData 6
feature_1 1 10000 float
0 0 0 0 0 0 0 0 0 
0 0 0 0 0 0 0 0 0 
0 0 0 0 0 0 0 0 0 
0 0 0 0 0 0 0 0 0 
0 0 0 0 0 0 0 0 0 
0 0 0 0 0 0 0 0 0 
0 0 0 0 0 0 0 0 0 
0 0 0 0 0 0 0 0 0 
0 0 0 0 0 0 0 0 0 
0 0 0 0 0 0 0 0 0 
0 0 0 0 0 0 0 0 0 
0 0 0 0 0 0 0 0 0 
0 0 0 0 0 0 0 0 0 
0 0 0 0 0 0 0 0 0 
0 0 0 0 0 0 0 0 0 
0 0 0 0 0 0 0 0 0 
0 0 0 0 0 0 0 0 0 
0 0 0 0 0 0 0 0 0 
0 0 0 0 0 0 0 0 0 
0 0 0 0 0 0 0 0 0 
0 0 0 0 0 0 0 0 0 
0 0 0 0 0 0 0 0 0 
0 0 0 0 0 0 0 0 0 
0 0 0 0 0 0 0 0 0 
0 0 0 0 0 0 0 0 0 
0 0 0 0 0 0 0 0 0 
0 0 0 0 0 0 0 0 0 
0 0 0 0 0 0 0 0 0 
0 0 0 0 0 0 0 0 0 
0 0 0 0 0 0 0 0 0 
0 0 0 0 0 0 0 0 0 
0 0 0 0 0 0 0 0 0 
0 0 0 0 0 0 0 0 0 
0 0 0 0 0 0 0 0 0 
0 0 0 0 0 0 0 0 0 
0 0 0 0 0 0 0 0 0 
0 0 0 0 0 0 0 0 0 
0 0 0 0 0 0 0 0 0 
0 0 0 0 0 0 0 0 0 
0 0 0 0 0 0 0 0 0 
0 0 0 0 0 0 0 0 0 
0 0 0 0 0 0 0 0 0 
0 0 0 0 0 0 0 0 0 
0 0 0 0 0 0 0 0 0 
0 0 0 0 0 0 0 0 0 
0 0 0 0 0 0 0 0 0 
0 0 0 0 0 0 0 0 0 
0 0 0 0 0 0 0 0 0 
0 0 0 0 0 0 0 0 0 
0 0 0 0 0 0 0 0 0 
0 0 0 0 0 0 0 0 0 
0 0 0 0 0 0 0 0 0 
0 0 0 0 0 0 0 0 0 
0 0 0 0 0 0 0 0 0 
0 0 0 0 0 0 0 0 0 
0 0 0 0 0 0 0 0 0 
0 0 0 0 0 0 0 0 0 
0 0 0 0 0 0 0 0 0 
0 0 0 0 0 0 0 0 0 
0 0 0 0 0 0 0 0 0 
0 0 0 0 0 0 0 0 0 
0 0 0 0 0 0 0 0 0 
0 0 0 0 0 0 0 0 0 
0 0 0 0 0 0 0 0 0 
0 0 0 0 0 0 0 0 0 
0 0 0 0 0 0 0 0 0 
0 0 0 0 0 0 0 0 0 
0 0 0 0 0 0 0 0 0 
0 0 0 0 0 0 0 0 0 
0 0 0 0 0 0 0 0 0 
0 0 0 0 0 0 0 0 0 
0 0 0 0 0 0 0 0 0 
0 0 0 0 0 0 0 0 0 
0 0 0 0 0 0 0 0 0 
0 0 0 0 0 0 0 0 0 
0 0 0 0 0 0 0 0 0 
0 0 0 0 0 0 0 0 0 
0 0 0 0 0 0 0 0 0 
0 0 0 0 0 0 0 0 0 
0 0 0 0 0 0 0 0 0 
0 0 0 0 0 0 0 0 0 
0 0 0 0 0 0 0 0 0 
0 0 0 0 0 0 0 0 0 
0 0 0 0 0 0 0 0 0 
0 0 0 0 0 0 0 0 0 
0 0 0 0 0 0 0 0 0 
0 0 0 0 0 0 0 0 0 
0 0 0 0 0 0 0 0 0 
0 0 0 0 0 0 0 0 0 
0 0 0 0 0 0 0 0 0 
0 0 0 0 0 0 0 0 0 
0 0 0 0 0 0 0 0 0 
0 0 0 0 0 0 0 0 0 
0 0 0 0 0 0 0 0 0 
0 0 0 0 0 0 0 0 0 
0 0 0 0 0 0 0 0 0 
0 0 0 0 0 0 0 0 0 
0 0 0 0 0 0 0 0 0 
0 0 0 0 0 0 0 0 0 
0 0 0 0 0 0 0 0 0 
0 0 0 0 0 0 0 0 0 
0 0 0 0 0 0 0 0 0 
0 0 0 0 0 0 0 0 0 
0 0 0 0 0 0 0 0 0 
0 0 0 0 0 0 0 0 0 
0 0 0 0 0 0 0 0 0 
0 0 0 0 0 0 0 0 0 
0 0 0 0 0 0 0 0 0 
0 0 0 0 0 0 0 0 0 
0 0 0 0 0 0 0 0 0 
0 0 0 0 0 0 0 0 0 
0 0 0 0 0 0 0 0 0 
0 0 0 0 0 0 0 0 0 
0 0 0 0 0 0 0 0 0 
0 0 0 0 0 0 0 0 0 
0 0 0 0 0 0 0 0 0 
0 1.61279e-09 0 0 0 2.81341e-11 0 0 0 
0 0 0 0 0 0 0 2.34048e-09 5.04979e-10 
0 0 0 0 0 0 0 0 0 
0 0 0 0 0 0 0 0 0 
0 0 0 0 0 0 0 0 0 
0 0 0 0 0 0 0 0 0 
0 0 0 0 0 0 0 0 0 
0 0 0 0 0 0 0 0 0 
0 0 0 0 0 0 0 0 0 
0 0 0 0 0 0 0 0 0 
0 0 0 0 0 0 0 0 1.18222e-09 
0 0 0 0 0 0 0 0 0 
0 0 0 0 0 0 0 0 0 
0 0 0 0 0 0 0 0 0 
0 0 0 0 0 0 0 0 0 
0 0 0 0 0 0 0 0 0 
0 0 0 0 0 0 0 0 0 
0 0 0 0 0 0 0 0 0 
0 0 0 0 0 0 0 0 0 
0 0 0 0 0 0 0 0 0 
0 0 0 0 0 0 0 0 0 
0 0 0 0 0 0 0 0 0 
0 0 0 7.92542e-07 5.88439e-09 2.64855e-09 0 1.1615e-09 0 
0 0 0 0 0 0 1.98361e-09 1.18747e-09 6.44926e-07 
1.58772e-09 0 0 0 0 0 0 0 0 
0 0 0 0 0 0 0 0 0 
0 0 0 0 0 0 0 0 0 
0 0 0 0 0 0 0 0 0 
0 0 0 0 0 0 0 0 0 
0 0 0 0 0 0 0 0 0 
0 0 0 0 0 0 0 0 0 
0 0 0 0 5.32806e-10 0 0 0 0 
0 0 0 1.40839e-09 0 0 0 0 0 
3.09218e-09 0 0 8.33215e-07 0 6.55809e-09 0 0 0 
7.07704e-10 0 0 0 0 0 0 0 0 
0 0 1.66784e-09 1.37932e-09 7.46035e-10 0 0 0 0 
0 0 0 0 0 0 0 0 0 
0 1.74895e-09 0 0 0 0 0 0 0 
0 0 0 0 0 0 0 0 0 
0 0 0 0 0 0 0 0 0 
0 0 0 0 0 0 0 0 0 
0 0 0 0 0 0 0 0 0 
0 0 0 0 4.30858e-09 6.46918e-07 0 0 0 
0 0 0 1.66151e-09 0 7.55488e-09 0 0 1.15967e-09 
0 0 0 0 0 0 0 0 1.38384e-09 
0 0 0 0 0 0 0 0 0 
0 0 0 0 0 0 0 0 0 
0 0 0 0 0 0 1.02371e-09 0 0 
6.46351e-07 1.35492e-09 0 9.20615e-10 0 0 0 0 0 
0 0 0 0 0 0 0 0 0 
0 0 0 0 0 0 0 0 0 
0 0 0 0 0 0 0 0 0 
0 0 0 0 0 0 0 0 0 
0 0 0 0 0 0 0 0 0 
0 0 0 0 1.05797e-09 3.92745e-09 0 4.30115e-09 2.69653e-09 
0 0 0 0 0 0 7.9856e-07 0 0 
1.06072e-09 0 0 0 0 0 0 0 0 
0 0 1.43156e-09 0 0 0 0 0 0 
0 0 0 0 8.23504e-10 0 0 0 0 
0 0 0 0 3.79173e-10 0 0 0 0 
0 0 0 0 0 0 0 0 0 
0 0 0 0 0 0 0 0 0 
0 0 0 0 0 0 0 0 0 
0 0 0 0 0 0 0 0 0 
0 0 0 0 0 0 1.98367e-09 0 0 
6.86655e-10 0 0 3.91446e-10 0 0 2.41311e-09 0 0 
0 0 8.625e-10 0 0 7.41814e-07 1.21584e-08 0 0 
0 0 6.89586e-07 0 9.57984e-10 8.43624e-10 0 0 0 
0 0 0 0 1.56069e-09 0 1.8475e-09 0 1.26582e-09 
0 2.06126e-09 0 0 0 0 0 0 0 
0 0 0 4.41181e-10 0 0 0 0 0 
0 0 0 0 0 0 0 0 0 
0 0 0 0 0 0 0 0 0 
0 0 0 0 0 0 0 0 0 
0 0 0 0 0 0 0 0 0 
0 0 0 0 0 0 1.11338e-09 5.02275e-09 0 
1.99444e-09 0 0 0 0 0 0 0 1.98971e-09 
1.5939e-09 0 0 0 1.2849e-09 1.71044e-09 0 0 2.27677e-09 
0 0 0 0 0 0 5.69071e-10 0 0 
0 0 0 0 0 0 0 7.19036e-07 0 
7.19253e-07 7.90036e-09 0 0 0 0 0 0 6.67474e-07 
0 0 0 0 0 0 0 0 0 
0 0 0 0 0 0 0 0 0 
0 0 0 0 0 0 0 0 0 
0 0 0 0 0 0 0 0 0 
0 0 0 0 0 0 0 0 0 
0 0 0 0 0 3.50815e-09 0 1.48263e-09 0 
0 0 0 0 0 0 0 0 1.83461e-09 
0 0 0 0 0 0 0 0 0 
0 0 0 0 0 0 1.74198e-09 0 0 
0 0 0 0 0 0 0 0 0 
0 0 2.24249e-09 0 0 0 0 9.11774e-10 0 
0 0 2.05349e-09 1.99371e-09 1.3778e-09 0 0 0 0 
0 0 0 0 0 0 0 0 0 
0 0 0 0 0 0 0 0 0 
0 0 0 0 0 0 0 0 0 
0 0 0 0 0 0 0 0 0 
0 0 0 0 0 0 0 1.69924e-09 1.67245e-09 
3.7547e-09 6.49594e-07 0 0 0 0 0 0 0 
0 0 0 0 6.49883e-07 0 0 0 0 
0 8.98365e-07 9.15302e-07 0 1.96972e-09 7.20292e-07 0 0 0 
0 0 0 0 0 0 0 1.92667e-09 0 
0 1.52623e-09 0 0 0 1.25112e-09 0 1.74197e-09 0 
1.81144e-09 0 8.93846e-10 1.38903e-09 1.10747e-09 0 0 0 0 
0 0 0 0 0 0 0 0 0 
0 0 0 0 0 0 0 0 0 
0 0 0 0 0 0 0 0 0 
0 0 0 0 0 0 0 0 0 
0 0 0 7.47139e-10 1.91302e-09 4.12212e-09 6.47051e-07 5.22637e-09 0 
0 2.71164e-09 3.69919e-09 0 0 0 0 0 0 
0 0 0 0 0 0 0 0 1.49766e-09 
0 0 0 0 0 0 1.82843e-09 0 1.15285e-09 
0 0 9.8839e-10 0 0 0 0 0 0 
0 0 0 0 0 0 1.27368e-10 0 0 
0 6.68569e-07 8.84476e-10 0 0 0 0 0 0 
0 0 0 0 0 0 0 1.6244e-09 0 
0 0 0 0 0 0 0 0 0 
0 0 0 0 0 0 0 0 0 
0 0 0 0 0 0 0 0 0 
0 0 0 0 0 1.08132e-09 0 0 5.17524e-09 
2.07189e-09 0 1.42716e-09 0 1.59604e-09 0 0 0 0 
0 7.49467e-10 0 0 0 0 0 0 0 
1.33591e-09 0 0 0 0 0 0 2.97138e-09 0 
1.50135e-09 0 0 0 0 0 0 0 0 
0 0 8.19071e-10 0 0 1.78669e-09 1.99083e-10 0 0 
0 0 0 0 7.06083e-10 0 0 0 1.95727e-09 
0 0 0 0 0 0 1.19459e-09 4.95355e-09 0 
0 0 0 0 0 0 0 0 0 
0 0 0 0 0 0 0 0 0 
0 0 0 0 0 0 0 0 0 
0 0 0 0 0 0 0 0 0 
0 0 0 0 0 0 0 0 0 
0 0 0 0 0 0 0 0 0 
0 0 0 0 0 1.96515e-09 0 0 2.57373e-10 
0 5.90927e-10 0 0 0 0 0 0 0 
0 0 0 0 0 0 0 4.32994e-09 0 
0 0 0 0 0 1.51845e-09 0 0 0 
0 0 0 0 0 0 0 0 0 
7.18938e-07 0 1.91003e-09 1.57077e-09 0 0 0 0 0 
0 0 0 0 0 0 0 0 0 
0 0 0 0 0 0 0 0 0 
0 0 0 0 0 1.44947e-09 0 0 0 
0 0 0 0 0 0 0 1.75803e-09 0 
0 0 7.11263e-10 3.21082e-10 0 0 9.8561e-10 0 0 
2.98371e-10 0 0 0 1.75577e-09 0 0 8.76622e-07 8.73978e-07 
0 0 0 0 0 0 0 0 5.29699e-10 
0 0 0 0 0 0 0 0 6.46591e-07 
0 0 0 1.73292e-10 0 0 0 0 0 
0 6.54917e-07 0 0 0 0 0 0 2.92967e-09 
5.84991e-09 0 0 0 0 0 0 0 0 
0 0 0 0 0 0 0 0 0 
0 0 0 0 0 0 0 0 0 
7.46251e-10 0 0 0 0 0 0 9.46119e-10 0 
0 0 0 0 0 0 0 0 0 
1.0838e-09 0 0 0 0 7.63721e-10 0 0 0 
0 0 0 0 0 1.71699e-09 0 0 3.43732e-09 
0 0 2.25731e-09 8.07523e-11 0 0 6.45986e-07 1.96692e-09 0 
9.54435e-10 0 0 0 0 0 0 2.88537e-09 0 
0 0 0 0 0 0 4.4865e-09 0 0 
0 0 1.3063e-09 1.10477e-10 3.95172e-09 0 1.0262e-09 0 1.28396e-09 
1.68243e-09 0 7.25836e-07 0 0 0 0 0 0 
0 0 0 0 0 0 0 0 0 
0 0 0 0 0 0 0 0 0 
0 0 0 9.311e-10 9.88964e-10 1.8732e-10 0 0 0 
0 0 0 0 0 0 0 0 0 
0 0 3.12799e-09 0 7.14277e-10 0 1.04379e-09 1.22946e-10 0 
0 0 0 0 0 0 0 1.93333e-09 0 
4.41512e-09 0 0 0 2.29521e-09 0 0 2.64027e-09 7.56663e-10 
0 0 1.32346e-09 0 0 0 0 6.25158e-10 0 
0 0 1.63038e-09 8.26728e-10 0 0 8.92494e-09 6.54728e-07 4.72498e-09 
0 0 0 0 0 0 0 3.92988e-10 0 
0 0 3.71879e-09 0 0 5.62445e-10 0 0 0 
0 0 0 0 0 0 0 0 0 
0 0 0 0 0 0 0 0 0 
0 0 0 0 0 0 0 0 0 
7.1881e-07 0 0 0 0 0 0 0 0 
0 0 4.31801e-09 6.46946e-07 0 0 1.72353e-09 3.69346e-09 6.98944e-07 
0 2.42239e-09 1.59614e-09 0 0 0 0 1.28787e-09 0 
0 0 0 0 1.54858e-09 0 0 0 0 
0 0 0 0 0 0 0 0 5.4744e-10 
0 0 1.12222e-09 0 1.75462e-09 0 0 0 3.01202e-09 
0 0 2.87406e-09 0 0 0 0 1.31763e-09 0 
0 0 0 2.9056e-09 0 0 2.52332e-09 0 0 
0 0 0 0 0 0 0 0 0 
0 0 0 0 0 0 0 0 0 
0 0 0 6.59904e-07 0 0 0 0 7.75646e-07 
0 0 0 0 0 0 0 0 0 
0 0 0 0 0 0 0 0 0 
0 0 7.06246e-07 0 0 4.04643e-09 0 0 0 
0 9.82694e-10 2.8305e-09 1.67182e-11 0 7.22868e-10 0 0 0 
1.36683e-09 0 0 0 0 0 0 0 0 
0 1.19044e-09 0 0 0 0 0 0 0 
0 0 0 0 0 6.56346e-07 0 0 1.33607e-09 
0 4.59724e-10 0 0 4.72846e-10 1.02288e-09 0 1.55364e-09 0 
0 0 0 0 0 0 0 0 0 
0 0 0 0 0 0 0 0 0 
0 0 1.35284e-09 3.99174e-09 0 0 0 0 0 
0 0 3.50579e-09 2.42684e-09 0 0 1.07667e-09 0 0 
0 0 0 0 1.03122e-09 0 0 0 0 
1.60762e-09 0 0 0 0 0 2.1377e-09 6.02813e-09 3.63051e-09 
0 5.9405e-09 7.04229e-07 0 0 1.43818e-10 0 0 0 
0 0 0 0 3.703e-09 2.95253e-09 4.78251e-09 1.60479e-09 0 
0 0 4.4226e-10 0 0 0 1.9059e-09 0 0 
0 0 2.6899e-09 0 0 0 0 0 0 
0 0 0 0 0 6.73419e-07 0 0 0 
2.53796e-10 0 0 0 0 0 0 0 0 
0 0 0 0 0 0 0 0 0 
0 0 0 0 0 0 1.19609e-09 0 7.11596e-07 
9.16649e-09 1.09767e-09 7.43663e-07 4.86397e-09 2.5036e-09 0 0 0 0 
0 9.29248e-10 0 0 0 0 0 0 0 
0 1.11378e-09 1.38183e-09 0 0 0 0 0 0 
0 0 0 7.2519e-09 0 0 0 0 0 
0 0 0 0 1.27864e-09 0 6.59253e-07 4.64544e-09 2.41135e-09 
0 0 0 0 0 0 6.503e-07 2.28252e-09 1.54369e-09 
0 0 6.91896e-09 3.6407e-09 2.683e-09 0 0 0 8.80592e-10 
0 0 0 0 0 0 0 0 0 
0 0 0 0 0 0 0 0 0 
0 0 0 0 0 0 0 0 0 
0 0 0 0 0 0 1.99639e-09 2.19737e-09 0 
0 0 0 0 0 5.9385e-10 1.32026e-09 0 2.85863e-09 
0 0 2.89463e-09 1.61384e-09 0 0 0 0 0 
0 0 3.26765e-10 0 0 0 0 0 0 
7.02497e-07 0 0 7.23898e-07 4.56765e-09 0 0 0 0 
0 0 0 0 0 0 0 2.6343e-09 0 
0 0 0 1.57312e-09 1.28336e-09 0 4.42869e-09 0 3.71878e-09 
0 0 4.07093e-09 6.50595e-07 0 0 1.18196e-09 0 9.76449e-10 
0 0 0 0 2.06702e-09 0 0 0 0 
0 0 4.62984e-10 0 0 0 0 0 0 
0 0 0 0 0 0 0 0 0 
0 0 0 0 0 0 0 0 4.90989e-10 
0 0 0 0 0 0 1.91561e-09 3.21885e-09 0 
0 8.72079e-07 0 0 0 0 0 0 0 
0 0 0 0 0 0 0 7.20935e-07 0 
5.684e-09 0 0 0 0 0 0 0 0 
0 0 0 1.28406e-10 1.5654e-09 2.40227e-09 2.30043e-09 3.65939e-09 0 
0 0 0 0 0 0 0 0 0 
0 0 0 0 0 0 0 2.09684e-11 0 
0 0 0 0 0 0 0 6.7595e-07 4.44012e-09 
0 0 0 0 0 0 0 0 0 
0 0 0 0 0 0 0 0 0 
0 0 0 0 0 0 0 0 1.03769e-10 
0 1.23003e-09 1.05331e-09 0 1.68647e-09 0 0 2.99065e-10 0 
3.76946e-09 0 8.85184e-07 0 0 0 0 0 0 
0 0 0 0 0 2.87152e-09 0 5.78615e-09 0 
0 0 3.35844e-09 2.90838e-09 0 0 0 0 1.40443e-09 
0 0 0 0 0 0 0 5.20723e-07 6.05722e-10 
0 3.35272e-09 0 0 0 0 2.33481e-09 3.68363e-09 0 
0 0 1.14013e-09 1.77048e-09 0 0 0 0 0 
0 0 0 0 0 0 1.95475e-09 0 0 
0 0 0 0 0 0 0 0 0 
0 0 0 0 0 0 0 0 0 
0 0 0 0 0 0 0 0 0 
0 0 0 0 0 0 7.50633e-10 0 0 
0 0 0 0 0 5.54077e-09 6.84842e-07 4.58074e-09 0 
0 0 0 0 8.18507e-10 0 0 0 0 
0 0 0 0 0 0 0 0 0 
0 0 0 0 0 0 0 0 5.66746e-09 
0 0 0 0 7.48687e-07 0 8.05002e-07 0 0 
0 0 0 0 0 0 0 0 0 
0 0 0 0 0 3.64103e-09 6.55842e-07 0 0 
0 0 0 0 0 0 0 0 0 
0 0 0 0 0 0 0 0 0 
0 0 0 0 0 0 0 0 0 
0 0 0 0 0 0 0 0 0 
2.32112e-09 1.38822e-09 0 0 0 0 1.4212e-09 4.36366e-09 7.54103e-10 
0 1.74723e-09 0 0 0 0 0 0 0 
8.99519e-07 9.13678e-07 0 4.02956e-09 3.3081e-10 0 0 0 4.58236e-09 
0 0 0 0 0 0 0 0 0 
6.92772e-10 1.38122e-09 1.8304e-09 0 0 0 0 3.74111e-09 0 
1.95602e-09 0 0 0 0 9.39792e-10 8.33372e-10 0 0 
0 0 0 0 0 0 2.1466e-09 2.49624e-09 0 
2.66437e-09 0 0 0 0 0 0 0 0 
0 0 0 0 0 0 0 0 0 
0 0 0 0 0 0 0 0 0 
0 0 0 0 0 0 0 0 0 
0 0 0 2.40635e-09 0 0 0 0 0 
0 9.29975e-10 0 0 0 0 0 0 3.06407e-09 
0 0 0 0 4.37231e-09 0 0 0 3.50318e-09 
0 0 2.03329e-09 0 3.84621e-09 0 0 0 0 
0 2.81853e-09 0 0 0 0 0 0 3.36476e-09 
8.77521e-07 0 0 7.35834e-07 0 1.24046e-09 1.6452e-09 0 0 
0 0 0 0 0 0 0 0 0 
0 0 0 0 0 0 0 0 0 
0 0 0 0 0 0 0 0 0 
0 0 0 0 0 0 0 0 0 
0 0 0 0 0 0 0 0 0 
0 0 0 3.54391e-09 7.14359e-07 0 9.34048e-09 0 0 
4.12788e-09 3.42631e-09 0 2.11559e-09 0 0 0 0 1.08632e-09 
0 0 0 0 0 0 0 0 0 
0 7.62191e-07 0 0 0 6.58767e-07 0 1.0516e-09 7.78552e-10 
0 7.54004e-10 0 0 1.56753e-09 0 0 0 0 
8.3198e-07 0 0 0 2.78783e-09 0 0 0 0 
0 0 0 0 0 0 0 0 0 
0 0 0 6.69886e-10 4.10728e-10 0 0 0 0 
0 0 0 0 0 0 0 0 0 
0 0 0 0 0 0 0 0 0 
0 0 0 0 0 0 0 0 0 
0 0 6.88314e-10 0 0 0 0 7.79149e-07 4.51367e-09 
0 0 0 6.54253e-07 0 0 1.57205e-09 4.52367e-10 0 
0 2.04526e-09 0 0 7.12529e-07 0 0 0 0 
0 0 1.00391e-08 0 0 0 4.26143e-09 0 1.37699e-09 
0 0 0 0 0 0 6.87286e-10 0 0 
0 0 1.07687e-09 0 7.48117e-07 6.91934e-09 0 0 0 
0 0 0 0 0 0 0 0 0 
0 0 0 0 0 0 0 0 0 
0 0 0 0 0 0 0 0 0 
0 0 0 0 0 0 0 0 0 
0 0 0 0 0 0 0 0 0 
0 0 0 0 0 0 0 0 5.30837e-09 
3.4848e-09 0 0 4.0496e-09 4.53648e-09 0 1.60781e-09 0 0 
0 0 0 0 0 0 0 1.14743e-09 8.49858e-09 
0 8.81134e-07 0 8.21297e-07 2.46846e-09 4.07722e-09 0 0 3.74855e-09 
0 0 0 0 0 0 0 0 0 
0 0 2.28185e-09 0 0 0 0 0 0 
3.98808e-10 0 0 0 0 0 0 0 0 
0 0 0 0 0 0 0 0 0 
0 0 0 0 0 0 0 0 0 
0 0 0 0 0 0 0 0 0 
0 0 0 0 0 0 8.15044e-10 0 0 
0 0 0 0 0 0 1.68774e-09 2.42148e-09 1.02794e-08 
7.33313e-07 0 0 1.36208e-09 0 0 0 1.50105e-09 0 
0 0 0 0 0 0 0 8.8666e-09 0 
0 8.5995e-07 0 0 0 0 0 0 0 
0 0 0 0 0 6.67573e-07 0 3.48786e-09 0 
0 1.43703e-09 0 0 4.3007e-09 0 0 0 0 
0 0 0 0 0 0 0 0 0 
0 0 5.52035e-10 0 0 0 0 0 0 
0 0 0 0 0 0 0 0 0 
0 0 0 0 0 0 0 0 0 
0 0 0 0 0 0 0 6.44243e-07 0 
0 0 0 0 0 0 0 0 0 
0 0 1.99261e-09 0 2.10424e-09 0 2.42655e-09 1.5386e-09 0 
0 0 0 7.18035e-10 0 0 0 0 0 
7.54789e-07 0 0 0 0 0 0 0 0 
0 0 0 1.23242e-09 0 0 5.04238e-09 0 3.04834e-09 
0 0 0 0 0 0 2.42886e-09 0 9.77653e-10 
1.03703e-09 0 0 0 0 0 0 0 0 
0 0 0 0 0 0 0 0 0 
4.69008e-10 0 0 0 0 0 0 0 0 
0 0 0 0 0 0 0 0 0 
0 0 0 0 0 0 2.35119e-09 2.02098e-09 0 
0 0 0 0 0 0 0 0 0 
0 3.16048e-09 0 0 0 0 0 0 0 
0 0 0 0 5.52054e-10 0 0 3.26941e-09 0 
0 0 0 0 0 0 7.0522e-10 9.64794e-10 0 
0 0 0 0 0 0 0 0 0 
4.84937e-09 0 0 8.46123e-07 0 8.42016e-07 8.84077e-09 0 6.77227e-10 
0 0 0 0 0 0 0 0 0 
0 0 0 0 3.52681e-09 0 0 0 0 
2.24397e-09 1.20896e-09 0 0 0 0 0 0 0 
0 0 0 0 0 0 0 0 0 
0 0 0 0 0 0 0 0 0 
0 0 0 0 1.47491e-09 3.1062e-09 0 0 0 
0 0 0 0 0 0 0 0 0 
0 0 0 0 2.09871e-10 0 0 0 0 
1.62392e-09 0 5.20771e-09 0 0 4.14685e-09 0 0 0 
0 0 0 0 5.95447e-10 0 0 0 0 
6.76074e-07 2.93666e-09 0 0 0 8.80308e-07 0 3.62965e-09 2.60895e-09 
0 0 2.52252e-10 0 0 0 0 0 0 
3.6111e-10 0 1.35237e-09 0 4.47806e-09 0 0 0 7.17197e-07 
2.26584e-09 0 0 0 0 0 0 0 0 
0 0 0 0 0 0 0 0 0 
0 0 0 0 0 0 9.30397e-11 0 0 
0 0 9.14843e-10 0 0 0 0 6.44153e-07 0 
0 1.41874e-09 0 0 0 0 0 0 0 
0 0 0 0 6.48418e-07 0 0 0 0 
0 0 0 0 9.07122e-07 8.93531e-07 0 0 0 
0 0 0 0 0 0 0 0 0 
2.4846e-09 8.73911e-09 0 0 0 1.34661e-09 0 0 1.71395e-09 
0 0 0 1.88875e-10 0 0 0 0 0 
1.55102e-09 0 0 0 0 1.2373e-08 6.99939e-07 0 0 
0 0 0 0 0 0 0 0 0 
0 0 0 0 0 0 0 0 0 
0 0 0 0 0 0 0 0 0 
0 0 0 0 0 0 0 1.31823e-09 1.83124e-09 
0 0 0 0 0 0 0 0 0 
2.17283e-10 0 0 0 2.96918e-09 0 0 2.40935e-09 0 
0 0 0 0 0 1.1355e-08 0 0 0 
0 0 0 0 0 0 0 0 0 
0 0 0 0 0 0 0 0 0 
0 0 0 0 0 0 0 0 0 
0 0 1.50408e-09 0 0 0 0 2.15824e-09 0 
5.16328e-09 0 7.11515e-07 0 0 0 0 0 0 
0 0 0 0 0 0 0 0 0 
0 0 0 0 0 0 0 0 0 
3.84406e-10 4.07207e-10 0 0 8.11163e-10 0 0 0 0 
1.30211e-09 0 0 0 0 0 0 0 0 
0 0 0 0 0 2.56379e-09 0 0 5.48623e-10 
0 0 0 0 1.07433e-09 0 0 0 3.61136e-09 
1.41146e-10 0 0 0 0 0 0 0 0 
0 0 0 0 0 0 1.81573e-09 0 3.04894e-09 
2.59286e-09 0 0 0 0 0 0 0 0 
0 0 0 0 0 0 6.87652e-07 1.21948e-09 1.38635e-09 
0 0 3.42376e-09 2.45278e-09 0 0 0 0 0 
0 0 0 0 0 0 0 0 0 
0 0 0 0 0 0 0 0 0 
0 0 0 0 0 0 0 0 0 
0 0 0 3.97641e-10 0 0 0 0 0 
0 0 0 8.804e-10 0 0 0 1.90415e-09 1.32035e-09 
0 0 0 0 1.97501e-09 8.61487e-09 6.7773e-07 0 0 
1.49195e-09 0 8.74197e-10 0 0 0 0 0 0 
0 0 0 0 0 0 9.55054e-10 0 0 
0 0 0 0 0 0 4.05442e-09 3.09025e-09 0 
0 0 0 6.54369e-07 0 1.96326e-09 7.35751e-10 0 0 
3.65489e-09 0 0 0 0 2.55783e-09 0 0 0 
0 0 0 0 0 0 0 0 0 
0 0 0 0 0 0 0 0 0 
0 0 0 1.52778e-09 0 2.0137e-09 0 0 0 
1.28905e-09 0 0 0 0 0 0 0 0 
0 0 0 0 0 0 6.48062e-07 0 0 
0 0 0 0 0 0 0 0 3.46779e-09 
0 0 1.00965e-09 0 0 0 0 0 0 
0 0 0 0 0 0 0 0 0 
0 0 0 0 0 2.63317e-09 6.16712e-09 6.49669e-07 0 
0 0 0 0 8.48397e-09 3.90293e-09 0 0 0 
0 1.55211e-09 0 0 0 0 0 1.03725e-09 1.48898e-09 
0 4.08311e-10 0 0 0 0 0 0 0 
0 0 0 0 0 0 0 0 0 
0 0 0 0 0 8.58904e-10 6.4452e-07 4.70194e-09 3.65812e-09 
0 0 0 0 0 0 0 0 0 
0 0 0 0 0 8.47341e-10 1.81283e-09 0 0 
0 0 0 0 0 0 8.14506e-10 1.3073e-09 0 
2.6971e-09 0 0 0 0 0 0 6.77738e-07 0 
0 8.81553e-10 0 0 0 0 0 0 0 
0 0 0 0 4.13548e-09 0 0 2.86886e-09 0 
0 0 0 9.00322e-10 0 0 0 0 0 
0 0 0 3.70178e-09 0 0 0 6.60475e-07 0 
0 0 5.176e-10 0 0 0 0 0 0 
0 0 0 0 0 0 0 0 0 
0 0 0 0 1.12993e-09 0 0 0 2.42877e-09 
0 0 0 0 0 0 0 0 0 
0 6.10049e-10 0 0 0 0 0 0 5.71149e-10 
0 7.99053e-10 0 0 0 0 0 0 3.25319e-10 
0 0 0 0 3.6904e-10 0 2.60314e-09 0 0 
0 0 0 0 0 0 0 0 0 
0 0 0 0 0 6.48622e-07 4.36069e-09 4.40512e-09 0 
0 0 0 0 0 1.13193e-09 0 0 0 
3.34908e-09 0 6.57195e-07 3.15361e-09 0 1.82673e-09 0 1.70769e-09 0 
0 0 0 0 0 0 0 0 0 
0 0 0 0 0 0 0 0 0 
0 0 0 0 0 0 0 0 0 
1.55412e-09 4.90403e-10 0 0 0 0 0 0 0 
0 0 0 0 7.22996e-10 0 0 0 0 
0 0 1.14392e-09 0 0 0 0 6.4659e-10 0 
0 0 0 1.50366e-09 0 0 0 8.61633e-10 3.79229e-09 
0 0 0 9.85813e-07 9.13922e-07 0 0 3.59076e-10 0 
0 0 0 0 0 0 0 0 0 
8.74508e-10 9.12634e-10 0 0 0 0 7.33639e-10 0 0 
0 0 0 0 0 0 0 0 0 
0 0 0 0 0 0 0 0 0 
0 0 0 0 0 0 0 0 0 
0 0 0 0 0 0 0 0 0 
1.23849e-09 0 0 0 0 0 0 0 0 
0 0 0 0 0 0 1.14885e-09 1.31685e-09 0 
0 0 0 0 0 0 0 4.54532e-10 0 
0 0 0 0 0 0 0 0 0 
0 0 0 8.31328e-07 0 0 6.68773e-09 0 0 
4.4734e-10 4.28173e-10 0 0 0 0 0 6.99583e-10 9.02462e-10 
0 0 0 0 0 0 0 0 0 
2.91139e-09 8.56408e-10 1.85573e-09 0 0 0 1.04212e-09 0 0 
0 0 1.8166e-09 0 0 0 0 0 0 
0 0 0 0 0 0 0 0 0 
0 0 0 0 0 0 0 0 5.68942e-10 
0 0 0 0 0 0 0 0 0 
0 0 0 0 0 0 1.88959e-09 0 0 
0 0 5.41099e-10 0 0 0 4.20485e-09 6.47227e-07 0 
0 0 0 0 1.59605e-09 0 0 0 0 
6.70627e-07 0 3.41378e-09 0 0 0 0 0 0 
0 0 0 0 0 0 0 0 0 
0 0 0 0 0 0 0 0 4.55945e-09 
6.66103e-07 0 0 1.4818e-09 1.31063e-09 0 0 0 0 
1.638e-09 6.56859e-07 0 0 0 0 0 0 0 
0 0 0 0 0 0 0 0 0 
0 0 0 0 0 0 0 0 1.25931e-10 
0 0 0 5.83308e-09 0 0 0 0 0 
0 0 0 0 0 5.95682e-09 6.79006e-07 0 0 
0 0 0 1.31555e-09 0 0 0 3.41877e-09 0 
2.6928e-09 0 0 0 0 0 0 1.88466e-09 0 
0 6.29671e-09 0 0 0 0 0 3.60043e-09 2.63398e-10 
0 5.81498e-10 0 0 0 0 0 0 0 
0 0 0 0 0 0 0 0 0 
0 0 0 2.48697e-09 0 0 0 0 2.25578e-09 
0 1.14163e-08 0 0 0 0 0 0 0 
0 0 0 0 0 0 0 0 0 
0 0 0 0 0 0 0 0 0 
0 0 0 6.44095e-07 0 0 0 0 0 
0 0 0 0 6.79496e-07 0 0 0 5.59033e-09 
0 0 0 4.6962e-10 0 0 0 3.50397e-09 0 
1.92906e-09 2.13422e-09 0 0 0 0 1.06111e-09 1.19335e-09 6.56556e-07 
4.59254e-09 3.45266e-09 0 0 0 0 0 2.01632e-09 0 
0 0 0 0 0 0 7.74959e-10 0 0 
0 0 0 0 0 0 0 0 1.69245e-09 
0 0 0 0 0 1.99956e-09 0 0 5.30155e-09 
0 0 2.32816e-09 0 0 0 0 0 0 
0 0 0 0 0 0 0 0 0 
0 0 0 0 0 0 0 0 0 
0 0 0 0 2.29878e-09 0 0 0 1.32301e-09 
0 0 0 0 0 0 0 0 0 
0 1.88408e-09 0 1.64106e-09 0 0 3.74357e-09 0 0 
2.12686e-09 0 0 9.73874e-10 0 0 0 0 0 
1.15452e-09 2.4901e-09 1.22095e-09 0 0 0 0 0 0 
0 0 1.5121e-09 6.68084e-07 4.94711e-09 0 0 8.46483e-10 0 
0 0 0 0 0 0 0 0 0 
0 0 0 0 0 1.62503e-09 0 2.32801e-09 0 
6.52313e-07 0 0 0 2.27999e-09 1.0484e-09 0 0 0 
0 0 0 0 0 0 0 0 0 
0 0 0 0 0 0 0 0 0 
0 0 0 1.13939e-09 0 0 0 0 8.47118e-10 
0 0 0 2.64013e-09 0 0 0 0 1.95159e-09 
2.32921e-09 2.51978e-09 7.37903e-07 3.53507e-09 0 0 0 6.63232e-07 2.46461e-09 
0 0 0 6.2557e-10 0 2.76935e-09 0 0 0 
8.38261e-10 1.9468e-09 0 3.12325e-10 0 0 0 0 0 
0 0 0 0 0 0 0 0 8.08918e-10 
0 0 0 0 0 0 0 0 0 
0 0 0 9.831e-07 1.08411e-06 0 0 0 0 
0 0 0 0 0 0 0 0 0 
0 0 0 0 0 0 0 0 0 
0 0 0 0 0 0 0 0 0 
0 0 0 0 0 0 0 0 0 
0 6.40469e-10 0 0 0 7.08037e-07 2.18626e-09 0 1.77649e-09 
0 0 4.01639e-09 1.03174e-09 0 0 0 0 2.21618e-09 
2.12822e-09 0 0 0 0 6.71862e-07 2.16128e-09 1.1771e-09 1.6684e-09 
0 0 0 0 0 0 0 0 0 
5.89948e-10 0 0 0 0 0 3.93216e-09 0 4.97511e-10 
0 0 0 0 0 0 0 0 0 
0 0 0 0 0 9.49463e-07 0 0 3.90068e-09 
1.7724e-09 0 0 0 0 6.52417e-10 0 0 7.66554e-07 
0 0 1.50493e-09 0 0 0 0 0 0 
0 0 0 0 0 0 0 0 0 
0 0 0 0 0 0 0 0 0 
0 0 0 0 0 0 1.42583e-09 0 1.17389e-09 
0 0 0 0 7.43743e-07 0 2.32583e-09 0 3.11452e-09 
0 0 0 4.05278e-09 0 0 0 0 0 
2.14779e-09 0 1.11655e-10 0 0 0 0 0 0 
0 0 0 0 0 0 0 6.80323e-07 0 
0 1.82984e-09 4.71668e-10 0 0 0 0 0 0 
0 0 0 1.21138e-09 0 0 0 0 0 
2.18425e-09 3.45099e-09 0 0 0 0 0 0 0 
0 7.70236e-07 0 0 0 0 0 0 0 
0 0 0 0 0 0 0 0 0 
0 0 0 0 0 0 0 0 0 
0 0 0 0 0 6.58739e-09 6.95961e-07 3.2685e-09 0 
4.20468e-09 0 0 1.95842e-09 0 0 0 0 1.64202e-09 
0 0 3.62173e-09 6.64593e-07 9.19919e-10 9.94694e-10 0 1.65929e-09 0 
0 0 1.18968e-09 0 1.71384e-09 0 1.04576e-09 0 0 
0 0 2.21409e-09 7.63214e-07 8.12578e-09 0 0 0 0 
1.8839e-09 0 7.6125e-09 0 7.54803e-10 0 0 1.15601e-09 1.16006e-09 
0 0 1.15527e-09 0 0 0 0 4.41546e-09 1.29727e-09 
0 6.6837e-07 3.79651e-09 1.93125e-09 0 8.69018e-10 0 0 0 
0 0 0 3.11754e-09 0 0 0 0 0 
0 0 0 0 0 0 0 0 0 
0 0 0 0 0 0 0 0 0 
0 0 0 0 0 0 2.85822e-09 0 0 
0 0 0 3.15078e-10 0 0 8.37179e-10 0 2.56393e-09 
0 0 0 0 0 1.02742e-08 0 1.73089e-09 0 
6.72202e-07 0 2.50304e-09 0 0 3.03299e-09 0 0 0 
0 0 0 0 0 7.6621e-07 0 1.72805e-09 0 
0 0 0 4.44987e-09 0 0 2.5751e-09 1.36191e-09 0 
0 3.23896e-10 0 0 0 0 0 0 0 
0 2.61131e-09 0 1.53961e-09 0 0 0 0 0 
0 0 0 0 2.71158e-09 0 0 0 0 
0 0 0 0 0 0 0 0 0 
0 0 0 0 0 0 0 0 0 
0 0 0 0 0 0 0 0 0 
0 1.42052e-09 0 0 0 0 0 0 6.74669e-07 
0 0 1.93745e-09 1.99106e-09 1.09289e-09 0 0 4.0156e-09 0 
0 0 0 0 0 0 6.62047e-07 0 0 
0 0 0 1.47851e-09 0 0 0 0 0 
0 0 0 0 0 9.63929e-07 1.68432e-09 0 0 
0 0 3.00291e-09 0 6.55553e-07 0 0 0 0 
0 1.85406e-09 2.6164e-09 0 0 0 0 0 0 
0 0 4.81635e-09 0 0 0 0 8.65404e-10 0 
0 0 0 0 0 0 0 0 0 
0 0 0 0 0 0 0 0 0 
0 0 0 0 0 0 0 0 0 
0 0 0 0 0 0 0 0 0 
0 0 0 0 0 0 0 0 0 
0 8.05673e-10 0 1.42954e-09 0 0 0 0 0 
1.57569e-09 1.11552e-09 0 0 0 0 1.98411e-09 0 0 
0 0 0 0 0 0 0 0 0 
0 0 0 0 0 4.21215e-09 2.71635e-09 0 0 
0 0 0 0 0 0 8.89153e-10 0 0 
3.18974e-09 0 0 5.10127e-09 8.23369e-07 0 0 0 0 
0 0 0 0 0 0 0 0 0 
0 0 0 0 0 0 0 0 0 
0 0 0 0 0 0 0 0 0 
0 1.13879e-09 0 1.77998e-11 0 0 0 6.04766e-10 0 
0 0 0 2.37837e-09 0 0 0 0 0 
0 0 1.78539e-09 0 0 3.52787e-09 2.87053e-09 0 2.48251e-09 
0 1.68918e-09 1.45969e-09 0 0 0 0 0 0 
0 0 0 0 0 0 0 1.0038e-06 9.9547e-09 
0 0 0 0 2.17691e-09 0 0 0 2.70137e-09 
0 5.60996e-10 0 2.39946e-09 0 0 0 0 0 
0 0 3.81836e-09 0 9.82821e-07 0 0 0 0 
0 0 0 0 0 0 0 0 0 
0 0 0 0 0 0 0 0 0 
0 0 0 0 0 0 0 0 1.73638e-09 
6.53508e-09 0 1.24046e-09 0 0 0 0 0 6.51327e-07 
4.13805e-09 0 0 1.72041e-09 0 0 2.12958e-09 0 6.38894e-10 
0 0 0 0 0 1.10627e-09 0 6.72092e-07 0 
0 0 0 0 0 0 0 0 0 
6.70174e-10 0 0 0 2.8815e-09 0 0 0 9.4245e-07 
0 0 0 0 7.48197e-07 0 0 0 0 
0 0 0 0 0 0 0 1.78884e-09 0 
0 6.7767e-07 1.32158e-09 0 0 9.19338e-07 0 0 0 
1.28137e-09 0 0 0 0 0 0 0 0 
0 0 0 0 0 0 0 0 0 
0 0 0 0 0 0 0 0 0 
0 0 0 6.19419e-10 3.7927e-10 0 1.46865e-09 0 0 
2.77007e-09 2.16282e-09 0 1.3239e-09 0 0 0 0 0 
0 0 0 0 0 0 0 0 9.07081e-10 
0 1.40741e-09 2.43255e-09 0 0 2.47096e-09 0 0 0 
1.27709e-09 0 0 2.04202e-09 0 9.82711e-10 1.54934e-09 0 0 
6.21792e-09 0 0 9.50107e-07 0 1.38003e-09 0 3.90727e-09 0 
0 4.23311e-09 0 1.79709e-09 3.74464e-09 0 6.6558e-07 0 0 
1.81077e-09 0 3.95067e-09 1.33161e-09 3.78057e-09 0 0 0 0 
0 0 4.04326e-10 0 0 0 0 0 0 
0 0 0 0 0 0 0 0 0 
0 0 0 0 0 0 0 0 0 
0 5.29168e-09 6.77205e-07 5.69872e-09 0 7.52421e-10 0 0 0 
0 0 2.94997e-09 0 0 0 6.60254e-10 1.18148e-09 6.52105e-07 
0 1.44368e-09 0 0 0 0 0 0 0 
0 0 6.97219e-09 7.38526e-07 0 3.36258e-09 0 1.86162e-09 0 
0 1.66593e-09 0 1.5941e-09 0 0 0 0 0 
0 0 1.21761e-09 0 9.14344e-07 0 0 4.23811e-09 0 
6.97734e-07 0 0 6.86771e-07 4.73666e-09 0 0 4.84204e-09 3.0689e-09 
0 2.34036e-09 4.01887e-09 0 0 0 0 0 0 
0 4.54503e-10 0 0 0 0 0 0 0 
0 0 0 0 0 0 0 0 0 
0 0 0 0 0 0 3.30219e-10 0 0 
0 0 0 0 0 0 0 0 0 
0 0 0 0 0 0 0 0 0 
1.14955e-09 0 0 0 4.33634e-10 0 0 0 0 
1.17934e-09 0 0 0 0 0 7.67076e-07 0 4.40759e-10 
0 0 0 0 0 0 0 0 0 
0 0 0 0 0 0 0 6.18557e-10 0 
0 0 0 0 4.0667e-09 0 6.11414e-09 0 0 
0 0 0 0 0 5.15126e-09 4.75552e-09 0 0 
0 0 0 0 0 0 0 0 0 
0 0 0 0 0 0 0 0 0 
0 0 0 0 0 0 0 0 0 
0 0 0 0 0 3.20795e-09 0 5.84425e-10 0 
0 5.14927e-10 2.75748e-09 7.51243e-10 0 0 0 0 1.02441e-09 
2.64058e-11 0 0 0 0 0 0 0 0 
0 0 2.22665e-09 1.41051e-09 0 0 0 1.20957e-09 2.75869e-09 
2.94234e-09 0 0 0 6.80097e-07 0 0 0 0 
0 0 1.4553e-09 0 0 0 0 0 0 
0 0 6.93263e-10 0 0 0 0 6.27504e-09 0 
1.08705e-09 0 4.25383e-09 0 0 7.78895e-07 0 0 5.72711e-10 
0 0 0 0 0 0 0 0 0 
0 0 0 0 0 0 0 0 0 
0 0 0 0 0 0 0 0 0 
1.20825e-09 0 0 8.75878e-07 8.93522e-07 0 0 1.32924e-10 0 
0 0 0 6.13673e-09 0 0 0 0 0 
2.16534e-09 0 0 1.76996e-09 0 0 0 0 0 
0 0 0 0 0 0 0 8.78209e-07 1.21831e-09 
0 0 0 0 4.3842e-09 1.73909e-09 0 0 6.75028e-07 
0 1.39592e-09 0 0 6.60852e-07 0 0 0 0 
0 0 0 2.44871e-09 1.56742e-09 0 3.28766e-09 0 0 
0 0 6.84458e-07 0 0 0 0 7.67385e-07 0 
0 0 0 0 0 0 0 0 0 
0 0 0 0 0 0 0 0 0 
0 0 0 0 0 0 0 0 0 
0 1.34469e-09 0 0 0 0 5.66327e-09 0 0 
1.85343e-09 1.35949e-09 0 0 0 6.44785e-07 7.53779e-09 2.93414e-09 9.795e-10 
0 7.90955e-10 0 1.78444e-09 6.51338e-07 2.6094e-09 1.63776e-09 0 0 
6.68791e-10 0 4.22203e-10 0 0 0 0 0 0 
0 0 0 0 4.8863e-09 0 0 0 8.15449e-10 
0 5.42607e-09 0 0 0 0 0 0 0 
1.62582e-09 0 6.59587e-07 0 0 0 2.21135e-09 1.6465e-10 0 
6.83916e-07 0 0 2.92621e-09 0 1.35809e-09 0 0 0 
0 0 0 0 0 0 0 0 0 
0 0 0 0 0 0 0 0 0 
0 0 0 0 0 0 0 0 0 
0 0 8.92106e-10 1.04053e-09 2.00055e-09 0 0 0 0 
0 0 1.36429e-09 5.40575e-10 0 0 0 0 1.75748e-09 
0 0 0 0 0 3.70692e-09 0 0 0 
0 8.47683e-10 0 0 0 0 0 9.92745e-07 1.15623e-06 
1.04971e-06 0 0 1.49967e-09 7.74713e-07 0 0 3.20358e-09 4.39545e-09 
0 0 3.29891e-09 0 0 0 0 0 0 
0 0 2.14315e-09 2.9616e-09 0 3.05499e-10 3.18082e-09 9.95373e-10 0 
1.41699e-09 0 0 0 0 8.18524e-10 0 1.55237e-09 6.89032e-10 
3.10041e-09 0 9.05887e-10 0 0 0 0 0 0 
0 0 0 0 0 0 0 0 0 
0 0 0 0 0 0 0 0 0 
0 0 0 0 0 5.53691e-09 0 0 7.04679e-09 
8.74947e-07 0 0 1.19211e-09 0 0 0 0 0 
0 0 0 0 0 1.20315e-09 1.82464e-09 0 0 
0 0 0 0 0 0 0 0 0 
1.71971e-09 0 0 0 0 0 5.4026e-09 7.35097e-07 0 
0 3.53048e-09 0 0 0 0 0 0 0 
0 3.99586e-10 0 0 0 0 0 0 6.62636e-07 
1.2956e-09 0 0 0 2.73057e-09 1.04714e-09 0 0 0 
0 0 0 0 0 0 0 0 0 
0 0 0 0 0 0 0 0 0 
0 0 0 0 0 0 0 0 0 
0 0 0 0 0 0 0 0 4.35612e-09 
0 8.6517e-07 0 0 0 0 0 1.10765e-09 0 
7.14758e-10 0 0 0 0 0 0 0 8.95548e-10 
0 0 0 0 0 0 0 0 0 
0 2.19069e-09 0 2.11265e-09 0 7.41221e-07 0 0 3.66258e-09 
0 0 0 0 3.17493e-10 0 0 0 0 
0 0 0 0 0 0 0 0 0 
0 0 0 0 0 2.20459e-09 0 0 0 
0 4.28927e-10 0 0 0 0 0 0 0 
0 0 0 0 0 0 0 0 0 
0 0 0 0 0 0 0 0 0 
0 0 0 0 1.19026e-09 0 1.20914e-09 0 0 
0 0 1.78928e-08 0 2.61203e-09 0 0 0 0 
0 0 0 0 0 0 0 0 0 
0 0 0 1.81365e-09 0 0 0 2.2202e-09 0 
4.46191e-09 7.10061e-07 3.16249e-09 0 0 0 7.05926e-09 3.53677e-09 5.41881e-09 
0 0 0 0 8.65182e-07 0 0 0 0 
0 0 0 0 0 0 0 2.22161e-10 0 
9.88009e-10 0 1.57603e-09 0 0 1.87818e-09 2.58024e-09 0 1.12927e-09 
1.25626e-09 3.79009e-10 0 0 0 0 0 0 0 
0 0 0 0 0 0 0 0 0 
0 0 0 0 0 0 0 0 0 
0 0 0 0 0 0 0 0 0 
0 0 1.5848e-09 0 0 0 5.08135e-10 0 0 
0 0 0 0 0 0 0 0 0 
0 0 0 0 0 2.94846e-09 6.46929e-07 5.33997e-09 1.32487e-09 
0 3.68172e-09 0 0 0 1.95983e-09 0 2.45798e-09 0 
0 0 0 0 2.51839e-09 8.61579e-07 0 3.65608e-09 1.60934e-09 
0 0 0 0 0 0 0 0 0 
0 0 0 0 3.61133e-10 6.63145e-10 0 0 2.26222e-09 
0 0 0 0 0 0 0 0 0 
0 0 0 0 0 0 0 0 0 
0 0 0 0 0 0 0 0 0 
0 0 0 0 0 0 0 3.94967e-09 0 
0 1.62414e-09 0 9.88682e-10 0 0 0 0 1.38301e-09 
0 0 0 0 0 0 0 0 0 
0 0 0 0 0 0 0 3.17949e-09 0 
0 0 0 2.09207e-09 0 0 0 0 0 
0 0 0 0 0 0 0 0 0 
0 0 0 0 0 0 0 0 0 
0 0 0 0 0 0 1.39166e-09 0 6.5243e-07 
0 1.7316e-09 0 0 0 0 0 0 0 
0 0 0 0 0 0 0 0 0 
0 0 0 0 0 0 0 0 0 
0 0 0 0 0 0 0 0 6.4425e-07 
0 0 1.05121e-09 0 2.13249e-09 3.54732e-09 0 3.31756e-10 1.04556e-09 
1.10543e-09 0 0 0 0 0 0 0 0 
0 0 0 0 0 0 0 0 7.49493e-10 
0 0 0 0 8.08572e-10 0 0 6.47259e-10 0 
0 0 0 0 0 1.33523e-09 0 4.9823e-09 0 
2.10515e-09 0 0 0 4.19742e-09 0 8.39693e-10 6.35622e-10 0 
0 0 0 0 0 0 0 0 3.50752e-09 
1.88101e-09 0 0 0 0 1.52905e-09 0 0 0 
0 0 0 0 0 0 0 0 0 
0 0 0 0 0 0 0 0 0 
0 0 0 0 0 0 0 0 2.20316e-09 
1.5068e-09 0 3.23566e-10 0 0 0 9.52167e-10 0 0 
0 0 0 0 0 0 0 0 0 
0 0 0 0 1.29873e-09 0 0 0 8.75364e-10 
0 0 0 0 0 8.21645e-10 0 0 0 
0 0 0 0 0 0 0 0 0 
0 0 2.31405e-09 0 1.13268e-09 6.82842e-07 0 3.01475e-09 0 
0 0 0 0 0 0 0 0 0 
0 0 0 0 0 0 0 1.22167e-09 0 
0 0 0 0 0 0 0 0 0 
0 0 0 0 0 0 0 0 0 
0 0 0 0 0 0 0 0 0 
0 2.23383e-09 1.66769e-09 1.25199e-09 0 0 0 3.21561e-09 6.59426e-07 
4.4257e-09 0 0 0 0 0 0 0 0 
5.24447e-10 4.26491e-10 0 0 1.72196e-10 1.04799e-09 0 0 0 
0 0 0 0 0 0 0 3.37684e-10 0 
0 0 0 0 0 0 0 0 1.52915e-09 
0 0 2.75908e-09 8.02439e-10 0 0 0 0 3.26796e-09 
0 0 0 0 0 0 0 0 0 
1.28461e-09 0 0 0 0 1.89226e-09 0 0 0 
0 0 0 0 0 0 0 0 0 
0 0 0 0 0 0 0 0 0 
0 0 0 0 0 0 0 0 0 
0 7.78452e-10 0 0 1.02458e-09 0 0 0 0 
0 0 4.49435e-09 0 6.73068e-07 0 0 1.62918e-09 0 
0 0 0 0 0 0 0 9.63604e-10 0 
0 0 0 0 8.94329e-10 0 0 2.65833e-09 0 
0 0 0 0 0 0 0 0 0 
0 5.2674e-10 0 0 0 6.79233e-07 6.56291e-09 0 0 
3.91039e-09 0 0 0 0 0 0 0 0 
0 7.41963e-10 2.04813e-09 0 6.52437e-07 4.17052e-09 0 0 2.62687e-09 
0 1.68682e-09 0 0 0 0 0 0 0 
0 0 0 0 0 0 0 0 0 
0 0 0 0 0 0 0 0 0 
0 0 0 0 0 0 0 0 0 
0 0 0 0 0 0 0 0 0 
0 0 0 0 3.85258e-09 0 0 2.81369e-09 0 
0 0 2.72371e-09 0 0 0 2.61696e-09 6.45525e-07 0 
4.6188e-09 0 0 0 0 0 0 0 0 
6.47063e-07 4.44405e-09 0 1.20756e-09 0 0 0 0 0 
1.47854e-08 6.62881e-07 0 2.16423e-09 0 0 0 0 0 
0 0 1.27011e-09 0 0 0 0 0 0 
0 0 8.5639e-07 0 0 0 0 0 0 
0 0 0 0 0 0 0 0 0 
0 0 0 0 0 0 0 0 0 
0 0 0 0 0 0 0 0 0 
0 0 0 0 0 0 4.76759e-09 0 0 
1.26446e-09 1.51319e-10 0 0 9.28341e-10 0 6.70925e-07 0 3.77293e-09 
0 0 0 0 0 0 2.25372e-09 4.43689e-10 0 
0 0 5.24711e-10 0 0 0 0 0 0 
0 0 1.49281e-09 0 0 0 3.71377e-09 0 0 
0 0 0 2.58231e-09 0 0 0 0 0 
0 0 0 0 0 0 0 0 8.51383e-10 
0 2.86431e-09 0 8.56738e-07 5.08822e-09 0 0 0 0 
0 0 0 0 0 0 0 0 0 
0 0 0 0 0 0 0 0 0 
0 0 0 0 0 0 0 0 1.12116e-09 
0 1.8061e-09 0 0 0 7.72781e-09 6.95552e-07 2.78559e-09 2.56765e-09 
1.01656e-09 2.70974e-09 0 0 0 0 0 0 0 
0 0 0 8.14086e-07 0 9.69716e-10 0 1.9109e-09 0 
0 0 1.19816e-10 0 0 0 0 0 0 
2.26439e-09 0 0 0 0 0 0 0 0 
5.0722e-10 0 0 0 0 0 2.54455e-10 0 0 
0 0 0 0 0 0 1.92465e-09 0 0 
0 0 0 0 0 0 1.48258e-09 0 3.83842e-10 
0 0 0 0 0 0 0 0 0 
0 0 0 0 0 0 0 0 0 
0 0 0 0 0 0 4.02178e-09 1.17189e-09 4.62671e-09 
0 1.17939e-09 0 2.55969e-09 8.11314e-07 0 0 0 3.00169e-09 
6.45148e-10 0 0 0 0 0 0 0 0 
0 0 7.35749e-07 0 2.15098e-09 7.87416e-07 8.98684e-09 0 0 
1.35803e-09 1.81283e-09 0 0 0 0 0 0 0 
0 0 0 4.02504e-10 0 0 0 0 0 
0 0 0 0 0 0 0 0 0 
0 0 0 0 0 0 0 0 0 