# vtk DataFile Version 5.1
vtk output
ASCII
DATASET STRUCTURED_POINTS
DIMENSIONS 100 100 1
SPACING 1 1 1
ORIGIN 0 0 0
POINT_DATA 10000
FIELD FieldData 6
feature_1 1 10000 float
0 0 0 0 0 0 0 0 0 
0 0 0 0 0 0 0 0 0 
0 0 0 0 0 0 0 0 0 
0 0 0 0 0 0 0 0 0 
0 0 0 0 0 0 0 0 0 
0 0 0 0 0 0 0 0 0 
0 0 0 0 0 0 0 0 0 
0 0 0 0 0 0 0 0 0 
0 0 0 0 0 0 0 0 0 
0 0 0 0 0 0 0 0 0 
0 0 0 0 0 0 0 0 0 
0 0 0 0 0 0 0 0 0 
0 0 0 0 0 0 0 0 0 
0 0 0 0 0 0 0 0 0 
0 0 0 0 0 0 0 0 0 
0 0 0 0 0 0 0 0 0 
0 0 0 0 0 0 0 0 0 
0 0 0 0 0 0 0 0 0 
0 0 0 0 0 0 0 0 0 
0 0 0 0 0 0 0 0 0 
0 0 0 0 0 0 0 0 0 
0 0 0 0 0 0 0 0 0 
0 0 0 0 0 0 0 0 0 
0 0 0 0 0 0 0 0 0 
0 0 0 0 0 0 0 0 0 
0 0 0 0 0 0 0 0 0 
0 0 0 0 0 0 0 0 0 
0 0 0 0 0 0 0 0 0 
0 0 0 0 0 0 0 0 0 
0 0 0 0 0 0 0 0 0 
0 0 0 0 0 0 0 0 0 
0 0 0 0 0 0 0 0 0 
0 0 0 0 0 0 0 0 0 
0 0 0 0 0 0 0 0 0 
0 0 0 0 0 0 0 0 0 
0 0 0 0 0 0 0 0 0 
0 0 0 0 0 0 0 0 0 
0 0 0 0 0 0 0 0 0 
0 0 0 0 0 0 0 0 0 
0 0 0 0 0 0 0 0 0 
0 0 0 0 0 0 0 0 0 
0 0 0 0 0 0 0 0 0 
0 0 0 0 0 0 0 0 0 
0 0 0 0 0 0 0 0 0 
0 0 0 0 0 0 0 0 0 
0 0 0 0 0 0 0 0 0 
0 0 0 0 0 0 0 0 0 
0 0 0 0 0 0 0 0 0 
0 0 0 0 0 0 0 0 0 
0 0 0 0 0 0 0 0 0 
0 0 0 0 0 0 0 0 0 
0 0 0 0 0 0 0 0 0 
0 0 0 0 0 0 0 0 0 
0 0 0 0 0 0 0 0 0 
0 0 0 0 0 0 0 0 0 
0 0 0 0 0 0 0 0 0 
0 0 0 0 0 0 0 0 0 
0 0 0 0 0 0 0 0 0 
0 0 0 0 0 0 0 0 0 
0 0 0 0 0 0 0 0 0 
0 0 0 0 0 0 0 0 0 
0 0 0 0 0 0 0 0 0 
0 0 0 0 0 0 0 0 0 
0 0 0 0 0 0 0 0 0 
0 0 0 0 0 0 0 0 0 
0 0 0 0 0 0 0 0 0 
0 0 0 0 0 0 0 0 0 
0 0 0 0 0 0 0 0 0 
0 0 0 0 0 0 0 0 0 
0 0 0 0 0 0 0 0 0 
0 0 0 0 0 0 0 0 0 
0 0 0 0 0 0 0 0 0 
0 0 0 0 0 0 0 0 0 
0 0 0 0 0 0 0 0 0 
0 0 0 0 0 0 0 0 0 
0 0 0 0 0 0 0 0 0 
0 0 0 0 0 0 0 0 0 
0 0 0 0 0 0 0 0 0 
0 0 0 0 0 0 0 0 0 
0 0 0 0 0 0 0 0 0 
0 0 0 0 0 0 0 0 0 
0 0 0 0 0 0 0 0 0 
0 0 0 0 0 0 0 0 0 
0 0 0 0 0 0 0 0 0 
0 0 0 0 0 0 0 0 0 
0 0 0 0 0 0 0 0 0 
0 0 0 0 0 0 0 0 0 
0 0 0 0 0 0 0 0 0 
0 0 0 0 0 0 0 0 0 
0 0 0 0 0 0 0 0 0 
0 0 0 0 0 0 0 0 0 
0 0 0 0 0 0 0 0 0 
0 0 0 0 0 0 0 0 0 
0 0 0 0 0 0 0 0 0 
0 0 0 0 0 0 0 0 0 
0 0 0 0 0 0 0 0 0 
0 0 0 0 0 0 0 0 0 
0 0 0 0 0 0 0 0 0 
0 0 0 0 0 0 0 0 0 
0 0 0 0 0 0 0 0 0 
0 0 0 0 0 0 0 0 0 
0 0 0 0 0 0 0 0 0 
0 0 0 0 0 0 0 0 0 
0 4.3801e-11 0 0 0 0 0 0 0 
0 0 0 0 0 0 0 6.60125e-10 0 
0 0 0 0 0 0 0 0 0 
0 0 0 0 0 0 0 0 0 
0 0 0 0 0 0 0 0 0 
0 0 0 0 0 0 0 0 0 
0 0 0 0 0 0 0 0 0 
0 0 0 0 0 0 0 0 0 
0 0 0 0 0 0 0 0 0 
0 0 0 0 0 0 0 0 0 
0 0 0 0 0 0 0 0 0 
0 0 0 0 0 0 0 0 0 
0 0 0 0 0 0 0 0 0 
0 1.72316e-09 0 0 0 0 0 0 0 
0 0 0 0 0 0 0 2.37697e-09 0 
0 0 0 0 0 0 0 0 0 
0 0 0 0 0 5.2227e-10 0 0 0 
0 0 0 0 0 0 0 0 0 
0 0 0 0 0 0 0 0 0 
0 0 0 0 0 0 0 0 0 
0 0 0 0 0 0 0 0 0 
0 0 0 0 0 0 0 0 0 
0 0 0 0 0 0 0 0 0 
0 0 0 0 0 0 0 0 1.65561e-09 
0 0 0 0 0 0 0 0 0 
0 0 0 0 0 0 0 0 0 
0 0 0 0 0 0 0 0 0 
0 0 0 0 4.54399e-10 0 0 0 0 
0 0 0 0 0 0 0 0 0 
0 0 0 0 0 0 0 0 0 
0 0 0 0 0 0 0 0 0 
0 0 0 0 0 0 0 0 0 
0 0 0 0 0 0 0 0 0 
0 0 0 0 0 0 0 0 0 
0 0 0 0 0 0 0 0 0 
0 0 0 7.84783e-07 6.75633e-09 2.15735e-09 0 0 0 
0 0 0 0 0 0 0 1.31147e-09 6.4054e-07 
1.38892e-09 0 0 0 0 0 0 0 0 
0 0 0 0 0 0 0 5.37922e-10 0 
0 0 0 0 0 0 0 0 0 
0 0 0 0 0 0 0 0 0 
0 0 0 0 0 0 0 0 0 
0 0 0 0 0 0 0 0 0 
0 0 0 0 0 0 0 0 0 
0 0 0 0 0 0 5.37902e-10 0 0 
0 0 0 1.3836e-09 1.58977e-10 0 0 0 0 
3.18187e-09 0 0 8.24812e-07 0 6.52041e-09 0 0 0 
8.00955e-10 0 0 0 0 6.18955e-10 0 0 0 
0 0 1.86887e-09 1.15627e-09 0 0 0 0 0 
0 0 0 0 0 0 0 0 0 
0 1.51221e-09 0 0 0 0 0 0 0 
0 0 0 0 0 0 0 0 0 
0 0 0 0 0 0 0 0 0 
0 0 0 0 0 0 0 0 0 
0 0 0 0 0 0 0 0 0 
0 0 0 0 4.44154e-09 6.42476e-07 0 1.52654e-09 0 
0 0 0 1.49148e-09 0 8.10848e-09 0 0 1.19412e-09 
0 0 0 0 0 0 0 0 0 
0 0 0 0 0 0 0 0 6.43877e-10 
0 0 0 0 0 0 0 0 0 
0 0 0 0 0 0 1.53354e-09 0 0 
6.41955e-07 1.42948e-09 0 0 0 0 0 0 0 
0 0 0 0 0 0 0 0 0 
0 0 0 0 0 0 0 0 0 
0 0 0 0 0 0 0 0 0 
0 0 0 0 0 0 0 0 0 
0 0 0 0 0 0 0 0 0 
8.715e-10 0 0 0 0 3.88616e-09 6.42181e-07 4.81778e-09 2.74288e-09 
0 0 0 0 0 0 7.89034e-07 0 0 
6.81807e-10 0 0 0 0 0 0 0 0 
0 0 1.30826e-09 0 0 0 0 0 0 
0 0 0 0 9.71396e-10 0 0 0 0 
0 3.83999e-10 0 0 0 0 0 0 0 
0 0 0 0 0 0 0 0 0 
0 0 0 0 0 0 0 0 0 
0 0 0 0 0 0 0 0 0 
0 0 0 0 0 0 0 0 0 
0 0 0 0 0 0 1.81903e-09 0 0 
0 0 0 0 0 0 2.34728e-09 0 0 
0 0 0 0 0 7.34176e-07 1.24073e-08 0 0 
0 0 6.83601e-07 0 0 1.18036e-09 0 0 0 
0 0 0 0 1.53045e-09 0 1.74863e-09 0 1.97052e-09 
0 0 0 7.68271e-10 0 0 0 0 0 
0 0 0 0 0 0 0 0 0 
8.13521e-11 0 0 0 0 0 0 0 0 
0 0 0 0 0 0 0 0 0 
0 0 0 0 0 0 0 0 0 
0 0 0 0 0 0 0 0 0 
0 0 0 0 0 6.01822e-10 0 5.26981e-09 0 
1.64211e-09 0 0 3.79892e-10 0 0 0 0 2.35299e-09 
0 0 0 0 0 0 0 0 0 
0 0 0 0 0 0 1.17858e-09 3.47368e-10 2.92047e-10 
0 0 0 0 0 0 0 7.1328e-07 0 
7.13081e-07 8.4738e-09 0 0 0 0 0 0 6.61847e-07 
0 0 0 0 0 0 0 0 0 
0 0 0 0 0 0 0 0 0 
0 0 0 0 0 0 0 0 0 
0 0 0 0 0 0 0 0 0 
0 0 0 0 0 0 0 0 0 
0 0 0 0 0 3.73852e-09 0 1.37093e-09 0 
0 0 0 0 0 0 0 0 0 
0 1.41897e-09 0 4.68406e-09 5.56094e-09 0 0 0 0 
0 0 0 0 0 0 1.73786e-09 0 0 
0 0 0 0 0 1.32155e-09 0 0 0 
0 0 2.53824e-09 0 0 3.18787e-10 0 0 0 
0 0 1.99385e-09 2.36971e-09 1.66512e-09 0 0 0 0 
0 0 0 0 0 0 0 0 0 
0 0 0 0 0 0 0 0 0 
0 0 0 0 0 0 0 0 0 
0 0 0 0 0 0 0 0 0 
0 0 0 0 0 0 0 2.13054e-09 0 
4.02608e-09 6.45021e-07 8.28205e-10 0 0 0 0 0 0 
0 0 0 0 6.45973e-07 0 0 0 0 
0 8.89315e-07 9.05648e-07 0 2.24597e-09 7.12938e-07 0 0 0 
0 0 0 0 0 0 0 1.74635e-09 0 
0 1.75305e-09 8.44041e-10 0 0 1.22881e-09 0 0 0 
2.03745e-09 0 0 1.22599e-09 0 0 0 0 0 
0 0 0 0 0 0 0 7.77459e-10 0 
0 0 0 0 0 0 0 0 0 
0 0 0 0 0 0 0 0 0 
0 0 0 0 0 0 0 0 0 
0 0 0 7.87435e-10 2.2015e-09 4.51559e-09 6.42417e-07 5.48592e-09 0 
0 2.77683e-09 3.51759e-09 0 0 0 0 0 0 
0 0 0 0 0 0 0 0 1.73104e-09 
0 0 0 0 0 0 2.03563e-09 0 1.13604e-09 
0 0 0 0 0 0 0 0 0 
0 0 3.72294e-10 0 0 0 0 0 0 
0 0 1.00445e-09 0 0 0 0 0 0 
4.19958e-10 0 0 0 0 0 1.4191e-09 1.51147e-09 0 
0 0 0 0 0 0 0 0 0 
0 0 0 0 0 0 0 0 0 
0 0 0 0 0 0 0 0 0 
0 0 0 0 0 0 0 0 5.23894e-09 
2.18178e-09 0 1.19595e-09 0 0 6.82316e-10 0 0 0 
0 5.47007e-10 0 0 0 0 0 0 6.55112e-10 
1.92795e-09 0 0 0 0 0 0 3.59854e-09 0 
1.28012e-09 0 0 0 0 2.58717e-10 0 0 0 
0 0 0 0 0 1.37577e-09 0 0 0 
0 0 0 0 0 0 0 0 1.51717e-09 
0 4.92232e-10 0 0 0 0 0 1.26572e-09 0 
0 0 0 0 0 0 0 0 0 
0 0 0 0 0 0 0 0 0 
0 0 0 0 0 0 0 0 0 
0 0 0 0 1.4752e-09 0 0 0 0 
0 0 0 0 1.01904e-09 0 0 0 0 
0 0 0 0 0 0 9.62356e-10 8.77911e-10 0 
5.55567e-10 0 0 0 0 1.97828e-09 0 0 0 
0 4.03514e-10 1.48503e-09 0 0 0 0 0 0 
0 0 0 0 0 0 0 4.70583e-09 0 
2.08473e-10 0 0 0 0 1.67359e-09 0 0 7.80619e-10 
0 0 0 0 0 0 0 0 0 
7.13069e-07 0 0 1.63836e-09 0 0 0 0 0 
0 0 0 0 0 0 0 0 0 
0 0 0 0 0 0 0 0 0 
0 0 0 0 0 1.76537e-10 0 0 0 
9.86422e-10 6.7955e-10 0 4.3083e-10 0 0 0 9.70953e-10 0 
0 0 0 4.44073e-10 0 0 7.717e-10 0 0 
5.76209e-10 0 0 0 1.65897e-09 0 0 8.68564e-07 8.65907e-07 
0 0 0 0 0 0 0 0 0 
3.56761e-10 0 0 0 0 0 0 0 6.42562e-07 
0 0 0 4.00188e-10 0 0 0 0 0 
0 6.50421e-07 7.77078e-09 0 0 0 0 0 0 
5.6971e-09 1.7926e-09 0 0 0 0 0 0 0 
0 0 0 0 0 0 0 0 0 
0 0 0 0 0 0 0 0 0 
6.46499e-10 0 0 0 0 0 0 1.44995e-09 0 
0 6.29466e-10 0 0 0 0 0 0 0 
1.62493e-09 0 0 0 0 7.637e-10 0 0 0 
0 0 0 0 0 0 0 1.65961e-10 3.36817e-09 
0 0 2.28947e-09 0 3.19719e-10 1.13648e-09 6.41225e-07 1.96784e-09 0 
1.15914e-09 0 0 0 0 0 0 2.78834e-09 0 
0 0 0 0 0 0 4.70473e-09 0 0 
0 0 1.63188e-09 0 3.56752e-09 0 0 0 0 
1.21473e-09 0 7.19651e-07 1.79951e-09 0 2.62542e-10 0 0 0 
0 0 0 0 0 0 0 0 0 
0 0 0 0 0 0 0 0 0 
0 1.04843e-09 0 1.25021e-09 1.37721e-09 0 0 1.16227e-09 0 
0 0 0 1.98813e-10 0 0 0 0 0 
0 0 2.87997e-09 0 1.18427e-09 0 1.17214e-09 0 0 
0 0 0 0 0 0 0 2.21526e-09 0 
4.39982e-09 9.38233e-11 0 0 2.3472e-09 0 7.03227e-10 2.62676e-09 0 
0 0 1.03e-09 0 0 0 0 6.08584e-10 0 
5.92517e-10 0 1.96899e-09 0 0 0 9.60257e-09 6.49347e-07 5.15496e-09 
0 0 0 0 0 0 0 7.04436e-10 0 
0 0 4.12707e-09 0 0 0 0 0 0 
0 0 0 0 0 0 0 0 0 
0 0 0 0 0 0 0 0 0 
0 0 0 0 0 0 0 0 0 
7.12037e-07 0 0 0 0 0 0 0 0 
0 0 4.33517e-09 6.42828e-07 0 0 1.89009e-09 0 6.93417e-07 
0 2.65898e-09 1.46914e-09 0 0 0 0 1.17268e-09 0 
0 0 0 0 0 0 0 0 0 
0 0 0 0 0 0 0 0 0 
0 0 1.38445e-09 0 0 0 0 0 3.40619e-09 
0 0 2.92285e-09 0 0 0 0 0 0 
0 0 0 3.09294e-09 0 0 1.2619e-09 0 0 
0 0 0 0 0 0 0 0 0 
0 0 0 0 0 0 0 0 0 
0 0 0 6.54666e-07 0 0 0 0 7.67641e-07 
0 0 0 0 0 0 0 0 0 
0 0 1.14145e-09 1.38826e-09 0 0 0 0 0 
0 0 6.99887e-07 0 0 3.74353e-09 0 0 0 
0 1.32794e-09 3.19766e-09 0 0 7.34788e-10 0 0 0 
1.02849e-09 0 0 0 0 0 0 0 3.06057e-10 
0 1.10357e-09 0 0 0 0 0 0 0 
0 0 0 0 0 6.5122e-07 0 0 0 
0 3.99685e-10 0 0 1.0237e-09 0 0 0 0 
0 0 0 0 0 0 0 0 0 
0 0 0 0 0 0 0 0 0 
0 0 1.77741e-09 3.68407e-09 0 0 0 0 0 
0 0 3.88752e-09 2.27765e-09 0 0 8.28278e-10 0 0 
0 0 0 0 0 0 0 0 0 
1.96273e-09 0 0 0 0 0 2.69343e-09 5.97408e-09 0 
0 6.05709e-09 6.98278e-07 0 0 0 0 0 0 
4.56192e-10 0 0 0 0 2.84434e-09 4.28377e-09 0 0 
0 0 0 0 0 0 1.84208e-09 0 0 
0 0 2.35122e-09 0 0 0 0 0 0 
0 0 0 0 0 6.67649e-07 0 0 0 
3.67699e-10 0 0 0 0 0 0 0 0 
0 0 0 0 0 0 0 0 0 
0 0 0 6.64299e-10 5.03208e-10 0 0 0 7.04503e-07 
9.26456e-09 0 7.35874e-07 4.38201e-09 2.46517e-09 0 0 0 0 
0 9.62393e-10 0 0 0 0 0 8.89315e-10 0 
0 1.09142e-09 1.41224e-09 0 0 0 0 0 0 
0 0 0 7.75515e-09 0 0 0 0 0 
0 0 0 0 1.20315e-09 0 6.54192e-07 4.92432e-09 2.97921e-09 
0 0 0 0 0 0 6.4594e-07 2.14999e-09 1.84549e-09 
0 0 7.05465e-09 3.66939e-09 2.55531e-09 0 0 0 4.88481e-10 
0 0 1.09461e-09 0 0 0 0 3.66322e-10 0 
0 0 0 0 0 0 0 0 0 
0 0 0 0 0 0 0 0 0 
0 0 0 0 0 0 2.50321e-09 2.65775e-09 0 
0 0 0 0 0 0 0 1.09521e-09 3.0186e-09 
0 0 0 0 0 0 0 0 0 
0 0 0 0 0 0 0 0 0 
6.95557e-07 0 0 7.1719e-07 4.73854e-09 0 0 0 0 
0 0 0 0 0 0 0 3.08902e-09 0 
0 0 0 1.85636e-09 1.52365e-09 0 4.71239e-09 0 3.58877e-09 
0 0 4.6319e-09 6.46153e-07 0 0 1.25044e-09 0 1.07932e-09 
0 0 0 0 2.28115e-09 0 0 0 0 
0 0 0 0 0 0 0 0 0 
0 0 0 0 0 0 0 0 0 
0 0 0 0 0 0 0 0 0 
0 0 0 1.90283e-09 1.27681e-09 0 1.9094e-09 3.28651e-09 3.17106e-10 
0 8.63875e-07 0 0 0 0 0 0 0 
0 0 0 0 0 0 0 7.14473e-07 0 
5.9233e-09 0 0 0 0 0 0 0 0 
0 0 0 8.46182e-10 1.69771e-09 0 1.88109e-09 4.18418e-09 0 
2.35196e-09 0 0 0 0 0 0 3.72095e-10 0 
0 0 0 0 0 0 0 9.54343e-10 0 
3.93442e-10 0 0 0 2.99614e-09 0 0 6.70783e-07 0 
0 0 0 0 0 0 0 0 0 
0 0 0 0 0 0 0 0 0 
0 0 0 0 0 0 0 0 0 
0 0 1.30185e-09 0 1.56609e-09 0 0 0 0 
3.75293e-09 1.51999e-09 8.76931e-07 0 0 0 0 0 3.95006e-10 
0 0 0 0 0 2.97355e-09 0 6.22496e-09 0 
0 0 2.99518e-09 2.95448e-09 0 0 0 0 0 
0 0 0 0 0 1.34462e-09 0 5.3614e-07 0 
0 3.47042e-09 0 0 0 0 2.73438e-09 3.25764e-09 0 
0 0 1.06872e-09 2.23124e-09 3.88262e-10 0 0 0 0 
0 0 0 0 0 0 1.93481e-09 0 0 
0 0 0 0 0 0 0 0 0 
0 0 0 0 0 0 0 0 0 
0 0 0 0 0 0 0 0 0 
0 0 0 0 0 0 0 0 0 
0 0 0 0 0 0 6.78686e-07 4.25782e-09 0 
0 6.44945e-10 0 0 0 0 0 0 0 
0 0 0 0 0 0 0 0 0 
0 0 0 0 0 0 0 0 5.58118e-09 
0 0 0 0 7.4124e-07 0 7.96219e-07 0 0 
0 0 0 0 0 0 0 0 0 
0 0 0 0 0 3.66876e-09 6.51592e-07 0 0 
0 0 0 0 0 0 0 0 0 
0 0 0 0 0 0 0 0 0 
0 0 0 0 0 0 0 0 0 
0 0 0 0 0 0 0 0 0 
2.23233e-09 1.60823e-09 0 0 6.63376e-10 4.86163e-09 1.4506e-09 4.82244e-09 8.37486e-10 
0 1.76275e-09 0 0 0 0 0 0 0 
8.90434e-07 9.04473e-07 0 3.91862e-09 0 5.31709e-10 0 0 4.77152e-09 
0 0 0 0 0 0 0 0 0 
4.58972e-10 1.68911e-09 1.99611e-09 0 0 0 0 3.93356e-09 0 
1.54126e-09 0 0 0 0 1.0935e-09 0 0 0 
9.8876e-11 0 0 0 0 0 2.5383e-09 2.42522e-09 0 
2.40035e-09 2.8185e-09 0 0 0 0 0 0 0 
0 0 0 0 0 0 0 0 0 
0 0 0 0 0 0 0 0 0 
0 0 0 0 0 0 0 0 0 
0 0 0 2.36876e-09 0 0 0 0 0 
0 6.05517e-10 0 0 0 0 0 0 0 
0 0 0 0 0 0 0 0 3.73854e-09 
0 0 2.2283e-09 0 3.80938e-09 0 0 0 0 
0 2.69447e-09 0 0 0 0 0 0 3.63716e-09 
0 0 0 7.28368e-07 0 1.59563e-09 0 0 0 
0 0 0 0 0 0 0 0 0 
0 0 0 0 0 0 0 0 0 
0 0 0 0 0 0 0 0 0 
0 0 0 0 0 0 0 0 0 
0 0 0 0 0 0 0 0 0 
0 0 0 3.83099e-09 7.07985e-07 0 9.07102e-09 0 0 
4.28929e-09 3.65372e-09 0 2.43155e-09 0 0 0 0 1.12496e-09 
0 0 0 0 0 0 0 0 0 
0 7.54414e-07 0 0 0 6.54082e-07 0 0 0 
0 7.52048e-10 0 0 0 0 0 0 0 
8.22578e-07 0 0 0 2.86696e-09 0 0 0 4.4749e-10 
0 0 0 0 0 0 0 0 0 
0 0 0 2.31884e-10 0 0 0 0 0 
0 0 0 0 0 0 0 0 0 
0 0 0 0 0 0 0 0 0 
0 0 0 6.3177e-10 0 0 0 0 0 
0 0 0 0 0 0 0 7.71076e-07 4.56611e-09 
0 0 0 6.49286e-07 0 0 1.50116e-09 0 0 
0 1.63853e-09 0 0 7.05154e-07 0 0 0 0 
0 0 1.07447e-08 0 0 0 4.37738e-09 0 0 
0 0 0 0 0 0 7.69837e-10 0 0 
0 0 9.43724e-10 0 7.40579e-07 6.7598e-09 0 0 0 
0 0 0 0 0 0 0 0 0 
0 0 0 0 0 0 0 0 0 
0 0 0 0 0 0 0 0 0 
0 0 0 0 0 0 0 0 0 
0 0 0 0 0 0 1.11516e-09 0 0 
0 0 0 0 3.09102e-10 0 0 0 5.55803e-09 
0 0 0 3.65317e-09 4.83086e-09 0 1.35636e-09 0 0 
0 0 5.06263e-10 0 0 0 0 9.90938e-10 0 
0 8.70779e-07 0 8.12405e-07 2.58997e-09 4.24888e-09 0 4.05826e-10 1.9934e-09 
1.35894e-09 0 0 0 0 0 0 0 0 
0 0 2.67507e-09 0 0 0 0 0 0 
0 0 0 0 0 0 0 0 0 
0 0 0 0 0 0 0 0 0 
0 0 0 0 0 0 0 0 0 
0 0 0 0 0 0 0 0 0 
0 0 0 0 0 0 0 0 0 
5.47186e-10 0 0 2.83512e-10 0 0 2.09196e-09 2.20625e-09 1.05708e-08 
7.26072e-07 0 0 1.58986e-09 0 0 0 0 0 
0 0 0 0 4.92802e-10 0 0 9.34579e-09 0 
0 8.49464e-07 0 0 0 0 0 0 0 
0 0 0 0 0 6.62146e-07 0 3.57306e-09 0 
0 1.91107e-09 0 0 4.31842e-09 0 0 0 0 
0 4.15897e-10 0 0 0 0 0 0 0 
0 0 6.12482e-10 0 0 0 0 7.37086e-10 0 
0 0 0 0 0 0 0 0 0 
0 0 0 0 0 0 0 0 0 
0 0 0 0 0 0 0 6.39925e-07 0 
0 0 0 0 0 0 0 0 0 
0 0 0 0 1.88475e-09 1.1984e-09 0 0 3.95914e-10 
0 0 0 0 0 0 0 0 0 
7.47006e-07 0 0 0 0 0 0 0 0 
0 0 0 0 0 0 5.05567e-09 0 3.65568e-09 
0 0 0 0 0 0 2.67066e-09 0 1.6129e-09 
9.51806e-10 0 0 0 0 0 0 0 0 
0 0 0 0 0 0 0 0 0 
0 0 0 0 0 0 0 0 0 
0 0 0 0 0 0 0 0 0 
0 0 0 0 0 0 2.22588e-09 2.28071e-09 0 
0 0 0 0 0 4.86901e-10 0 6.06772e-10 0 
1.51056e-09 1.40087e-09 1.61522e-10 0 0 0 0 0 0 
0 0 0 0 0 9.19726e-10 0 2.97428e-09 0 
0 0 0 0 0 0 0 1.47669e-09 0 
0 0 0 0 0 0 0 0 0 
4.53329e-09 0 0 8.37273e-07 0 8.33238e-07 9.26353e-09 0 0 
0 0 0 0 0 0 0 0 0 
4.11814e-10 0 0 0 3.64921e-09 0 0 0 0 
2.07102e-09 0 0 0 0 0 0 0 0 
0 0 0 0 0 0 0 0 0 
0 0 0 0 0 0 0 0 0 
0 0 0 0 1.61586e-09 0 0 0 0 
0 0 0 0 0 0 0 0 0 
0 0 0 0 0 0 0 0 0 
1.93989e-09 0 4.7445e-09 0 0 4.51878e-09 0 0 0 
0 0 0 0 0 0 0 0 0 
6.70175e-07 2.72999e-09 0 0 0 8.71654e-07 0 3.81725e-09 2.84302e-09 
7.2375e-10 0 0 0 0 0 0 0 3.11278e-10 
0 0 0 0 4.18961e-09 0 0 0 7.104e-07 
0 0 0 4.11037e-10 0 0 0 0 0 
0 0 0 0 0 0 0 0 0 
0 0 0 0 0 0 0 0 0 
0 0 0 0 0 0 0 6.40084e-07 0 
0 0 0 0 0 0 0 3.65311e-10 0 
0 0 0 0 6.44358e-07 0 0 0 0 
0 0 0 0 8.98027e-07 8.84274e-07 0 0 0 
0 0 0 0 0 0 0 0 0 
2.95227e-09 9.35042e-09 0 0 0 1.72281e-09 0 0 1.75532e-09 
0 0 0 0 0 5.00109e-10 0 0 0 
1.45154e-09 0 0 0 0 5.60884e-09 6.9339e-07 0 0 
0 0 4.40362e-10 0 0 0 0 0 0 
0 0 0 0 0 0 0 0 0 
0 0 0 0 0 0 0 0 0 
0 0 0 0 0 0 0 1.27753e-09 1.90473e-09 
0 0 0 0 0 0 0 0 0 
0 0 0 0 0 0 0 2.26544e-09 0 
0 0 0 0 0 1.13128e-08 0 0 0 
0 0 0 0 0 0 0 0 9.06029e-10 
0 0 0 0 0 0 0 0 0 
0 0 3.17093e-10 0 0 0 0 0 0 
0 0 1.67658e-09 0 0 0 0 1.85597e-09 0 
4.97503e-09 0 7.04767e-07 0 0 0 0 0 0 
0 0 0 0 0 0 0 0 0 
0 0 0 0 0 0 0 0 0 
0 0 0 0 0 0 0 0 0 
0 0 0 0 0 0 0 0 0 
0 0 0 0 0 2.58347e-09 0 0 0 
0 0 0 0 7.17217e-10 0 0 9.58085e-10 3.30071e-09 
0 0 0 0 7.06175e-10 0 0 0 0 
0 0 0 0 0 0 1.74758e-09 0 2.97468e-09 
2.77471e-09 0 0 0 0 0 0 0 0 
0 0 0 0 0 0 6.81518e-07 9.9455e-10 1.52599e-09 
0 0 4.01569e-09 2.50783e-09 0 0 0 0 0 
0 0 0 0 0 0 0 0 0 
0 0 0 0 0 0 0 0 0 
0 0 0 0 0 0 0 0 0 
0 0 0 5.30938e-10 0 0 0 0 0 
0 0 0 0 0 0 0 1.85001e-09 0 
0 0 0 0 1.91636e-09 3.25989e-09 6.71985e-07 0 0 
0 0 1.21194e-09 0 0 0 0 0 0 
0 0 0 0 0 0 0 0 0 
0 0 0 0 0 0 3.74364e-09 0 1.13941e-09 
1.22312e-09 0 0 6.49794e-07 0 1.70362e-09 0 0 0 
3.66545e-09 0 0 0 0 2.39399e-09 0 0 0 
0 0 0 0 0 0 0 0 0 
0 0 0 0 0 0 0 0 0 
0 0 0 0 0 1.85402e-09 0 0 0 
6.27252e-10 0 0 0 0 0 0 0 0 
0 0 0 0 0 0 6.44345e-07 0 0 
0 0 0 0 0 0 0 0 3.15303e-09 
0 0 0 0 0 0 0 0 0 
0 0 0 0 0 0 0 0 0 
0 0 1.41596e-09 0 0 2.30173e-09 5.72149e-09 6.45109e-07 0 
0 0 0 0 8.75017e-09 0 0 0 0 
0 1.53855e-09 0 0 0 0 0 0 0 
0 5.37528e-10 0 0 0 0 0 0 0 
0 0 0 0 0 0 0 0 0 
0 0 0 0 0 0 6.406e-07 4.26256e-09 1.62415e-09 
0 0 0 0 0 0 0 0 0 
0 0 0 0 0 1.15999e-09 2.21477e-09 0 0 
0 0 5.99797e-10 0 0 0 0 1.26349e-09 0 
2.50443e-09 0 0 8.3277e-10 0 0 1.49658e-09 6.7155e-07 0 
0 7.99798e-10 0 0 0 0 0 0 0 
0 0 0 0 0 0 0 2.71073e-09 0 
0 1.40809e-10 0 0 0 0 0 0 1.12473e-09 
0 0 0 4.03449e-09 0 0 0 6.55669e-07 0 
0 0 0 0 0 0 0 0 0 
0 0 0 0 0 0 0 0 0 
0 0 0 0 8.3001e-10 0 0 0 2.71551e-09 
0 0 0 0 0 0 0 0 0 
0 0 0 0 0 0 0 0 7.19812e-10 
0 1.32296e-09 7.09499e-10 6.01271e-10 0 0 0 0 0 
0 0 0 0 6.73145e-10 0 2.33046e-09 0 0 
0 0 0 0 0 0 0 0 0 
0 1.60622e-10 0 0 0 6.44379e-07 4.5062e-09 4.41485e-09 0 
0 0 0 0 0 9.74905e-10 0 0 0 
3.7251e-09 0 6.522e-07 3.09334e-09 0 1.89042e-09 0 1.59592e-09 0 
0 0 0 0 0 0 0 0 0 
0 0 0 0 0 0 0 0 0 
0 0 0 0 0 0 0 0 0 
1.73567e-09 0 0 0 0 0 0 0 0 
0 0 2.6292e-10 0 6.43929e-10 0 0 0 0 
1.32571e-09 0 9.34614e-10 0 0 0 0 0 0 
0 0 0 6.6231e-10 0 0 0 0 0 
0 0 0 9.76007e-07 9.04682e-07 0 0 4.9328e-10 0 
0 0 0 0 0 0 0 0 0 
1.09476e-09 0 0 1.5153e-10 0 0 6.45301e-10 0 0 
0 0 1.12709e-09 0 0 0 0 0 0 
0 0 0 0 0 0 0 0 0 
0 0 0 0 0 0 0 0 0 
0 0 0 0 0 0 0 0 2.45524e-09 
9.19207e-10 0 0 0 0 0 0 0 0 
0 0 0 0 0 0 0 0 0 
0 3.75115e-10 0 0 0 0 0 7.06636e-10 3.28396e-10 
6.32223e-10 0 1.35845e-10 0 0 0 0 0 0 
0 0 0 8.22042e-07 0 0 7.42862e-09 0 0 
0 0 0 0 0 0 0 0 0 
0 0 0 0 0 0 0 0 0 
2.99525e-09 0 1.7271e-09 0 0 0 1.26905e-09 0 0 
0 0 1.95671e-09 0 0 0 0 0 0 
0 0 0 0 0 0 0 0 0 
0 0 0 0 0 0 0 0 0 
0 0 0 0 0 0 0 0 0 
8.68074e-10 0 0 0 0 0 2.09935e-09 0 3.98703e-10 
0 0 0 3.21133e-10 0 0 4.23852e-09 6.42768e-07 0 
0 0 0 0 1.79261e-09 0 0 0 0 
6.64909e-07 0 3.85105e-09 0 0 0 0 0 0 
0 0 0 0 0 0 0 0 0 
0 0 5.60417e-10 5.52984e-10 0 0 0 0 5.14344e-09 
6.60969e-07 0 0 1.09349e-09 0 0 8.68621e-11 0 0 
2.05352e-09 6.52061e-07 0 0 0 0 0 0 0 
0 0 0 0 0 0 0 0 0 
0 0 0 0 0 0 0 0 0 
0 0 0 6.15516e-09 0 0 0 0 0 
0 0 0 0 0 6.23188e-09 6.72785e-07 0 0 
5.57791e-10 0 0 0 0 0 0 0 0 
2.61962e-09 0 0 3.74948e-11 0 0 3.00237e-10 1.75633e-09 0 
0 5.79794e-09 0 0 0 0 0 3.66034e-09 0 
0 8.40427e-10 0 0 0 0 0 0 0 
0 0 0 0 0 0 0 0 0 
0 0 0 2.71193e-09 0 0 0 0 2.02602e-09 
0 1.11023e-08 0 0 0 0 0 0 0 
0 0 0 0 0 0 0 0 0 
0 0 0 0 0 0 0 0 0 
0 0 0 6.40566e-07 0 0 0 0 0 
0 0 0 0 6.73628e-07 0 0 0 0 
0 0 0 0 0 0 0 3.67764e-09 0 
2.28704e-09 0 0 0 0 0 1.23853e-09 0 6.5187e-07 
4.55148e-09 3.37698e-09 0 0 0 0 0 1.81042e-09 0 
0 0 0 0 0 0 0 0 0 
0 0 0 0 0 0 0 0 2.13279e-09 
0 0 0 0 0 0 0 0 0 
0 0 2.52331e-09 0 0 0 0 0 0 
0 0 0 0 0 0 0 0 0 
0 0 0 0 0 0 0 0 0 
0 0 0 0 1.91331e-09 0 0 0 0 
0 0 0 7.79944e-10 0 0 1.27886e-09 0 0 
0 2.06884e-09 0 0 0 0 3.72145e-09 0 0 
2.36153e-09 0 9.10147e-10 0 0 0 0 0 0 
0 2.31885e-09 1.35947e-09 0 0 0 0 0 1.10816e-09 
0 0 1.71801e-09 6.63205e-07 5.23288e-09 0 0 0 0 
0 0 0 0 0 0 0 0 0 
0 0 0 0 0 1.47719e-09 0 2.16404e-09 0 
6.47783e-07 0 0 0 1.83379e-09 0 0 0 0 
0 0 0 0 0 0 0 0 0 
0 0 0 0 0 0 0 0 0 
0 0 0 7.35213e-10 0 7.53614e-10 0 0 1.02695e-09 
5.12756e-10 7.62759e-10 0 3.15891e-09 0 0 0 0 0 
2.26314e-09 2.47396e-09 7.31038e-07 3.6616e-09 0 3.44817e-09 0 6.57998e-07 2.5537e-09 
0 0 0 4.42391e-10 1.41637e-09 2.32262e-09 1.36907e-09 0 0 
0 2.23997e-09 0 5.13574e-10 0 0 0 0 0 
0 0 0 0 0 0 0 0 0 
0 0 0 0 0 0 0 0 4.43164e-10 
0 0 0 9.72822e-07 1.07374e-06 0 0 0 0 
0 0 0 0 4.46859e-10 0 0 0 0 
0 0 0 0 0 0 0 0 0 
0 0 0 0 0 0 0 0 0 
0 0 0 0 0 0 0 0 0 
0 0 0 0 0 7.01604e-07 2.21092e-09 0 1.93979e-09 
0 0 4.36253e-09 1.29981e-09 0 0 0 0 1.98532e-09 
2.42687e-09 0 0 0 0 6.66651e-07 1.7983e-09 1.37691e-09 1.64699e-09 
0 0 0 0 0 0 0 0 0 
0 0 0 0 0 0 3.89767e-09 0 0 
0 0 0 0 0 0 0 0 0 
0 0 0 0 0 9.7671e-07 0 0 4.11899e-09 
1.64354e-09 0 0 0 0 1.2534e-09 0 0 7.59289e-07 
0 0 1.51032e-09 4.53042e-10 0 0 0 0 0 
0 0 0 0 0 0 0 0 0 
0 0 0 0 0 0 0 0 0 
0 0 0 0 0 0 0 0 0 
0 2.4693e-09 0 0 7.36637e-07 0 2.09243e-09 0 2.99595e-09 
8.64067e-10 0 0 3.99908e-09 0 0 0 0 0 
2.47247e-09 0 0 4.62538e-10 0 7.77625e-10 0 8.16674e-10 0 
0 0 0 0 0 0 0 6.74736e-07 0 
0 2.04406e-09 0 0 0 0 0 0 0 
0 0 0 1.5e-09 0 0 0 0 0 
0 3.93691e-09 0 0 0 0 0 0 0 
0 7.62923e-07 0 0 0 0 0 0 0 
0 0 0 0 0 0 0 0 0 
0 0 0 0 0 0 0 0 0 
1.24574e-10 0 5.5066e-10 0 0 6.54681e-09 6.90545e-07 3.32461e-09 0 
1.64637e-09 0 0 2.28905e-09 0 0 4.12994e-10 0 1.66262e-09 
0 0 4.0096e-09 6.59184e-07 1.13693e-09 1.1397e-09 0 0 0 
0 0 1.30086e-09 0 1.57882e-09 0 7.69383e-10 0 0 
0 0 2.40468e-09 7.56978e-07 8.31747e-09 0 7.37263e-10 0 0 
0 0 7.54632e-09 0 0 0 0 0 3.88714e-10 
0 4.722e-10 1.32795e-09 0 0 0 9.74405e-10 4.47326e-09 8.59722e-10 
0 6.62619e-07 3.29287e-09 2.14528e-09 0 1.41863e-09 0 0 0 
0 0 0 3.05333e-09 0 0 0 0 0 
0 0 0 0 0 0 0 0 0 
0 0 0 0 0 0 0 0 0 
0 0 0 0 0 0 2.94842e-09 0 0 
0 0 0 7.31798e-10 0 0 5.26045e-10 0 3.08096e-09 
0 0 0 0 0 1.0008e-08 0 1.37499e-09 0 
6.66774e-07 0 2.11679e-09 0 0 2.79481e-09 0 0 0 
0 0 0 0 0 7.58988e-07 0 1.59771e-09 0 
0 0 0 4.3664e-09 0 0 0 0 0 
0 0 0 0 0 1.15828e-10 1.94672e-09 3.18611e-10 0 
0 2.89329e-09 0 0 0 0 0 0 0 
1.38683e-10 0 0 0 2.76825e-09 0 0 0 0 
0 0 0 0 0 0 0 0 0 
0 0 0 0 0 0 0 0 0 
0 0 0 0 0 0 0 0 0 
0 1.37105e-09 0 2.68558e-10 5.00794e-10 0 0 0 6.68703e-07 
0 0 1.69691e-09 0 0 0 0 4.04599e-09 0 
0 0 5.92587e-10 2.73761e-09 0 0 6.56821e-07 0 0 
0 0 0 1.67592e-09 0 0 0 0 0 
0 0 0 0 9.26123e-07 9.54e-07 1.77806e-09 0 0 
0 0 0 6.44769e-10 6.50937e-07 0 0 0 0 
0 0 2.94786e-09 0 0 0 0 0 0 
0 0 5.44679e-09 0 0 0 0 0 0 
0 0 0 0 0 0 0 0 0 
0 0 0 0 0 0 0 0 0 
0 0 0 0 0 0 0 0 0 
0 0 0 5.37815e-10 0 0 0 0 0 
0 0 0 0 0 0 0 0 0 
0 0 0 0 0 8.93988e-10 0 0 0 
1.75379e-09 1.37206e-09 0 0 0 0 1.94963e-09 0 1.12798e-09 
0 0 0 0 0 0 0 0 0 
0 0 0 0 0 4.24297e-09 3.00607e-09 0 0 
1.57709e-09 0 0 0 0 1.73763e-10 0 4.68981e-10 0 
3.86547e-09 0 0 5.04596e-09 8.14723e-07 0 0 0 0 
0 0 0 0 0 0 0 0 0 
0 0 0 0 0 0 0 0 0 
0 0 0 0 2.47147e-10 0 0 0 0 
0 0 0 0 0 0 0 9.24085e-10 0 
0 0 0 1.03203e-09 0 0 0 0 0 
0 0 0 0 0 3.46465e-09 3.15352e-09 0 2.69638e-09 
0 1.53636e-09 1.34503e-09 0 0 0 0 0 0 
0 0 0 0 0 0 0 9.9227e-07 9.88134e-09 
0 0 0 0 2.43561e-09 0 0 0 2.43701e-09 
8.25244e-10 0 0 2.17318e-09 0 0 0 0 0 
0 0 3.97081e-09 0 9.73015e-07 0 0 0 1.15065e-09 
0 0 0 0 0 0 0 0 0 
0 0 0 0 0 0 0 0 0 
0 0 0 0 0 0 0 0 1.70795e-09 
4.98906e-09 0 0 0 5.46529e-10 0 0 0 6.46933e-07 
4.57641e-09 5.3916e-10 0 1.94945e-09 0 0 1.89375e-09 0 0 
0 0 0 0 0 1.05369e-09 0 6.6643e-07 0 
0 0 0 3.7702e-10 0 0 0 0 0 
9.1343e-10 0 0 0 2.36784e-09 0 0 0 9.31459e-07 
0 0 0 0 7.39993e-07 0 0 0 0 
0 0 0 0 0 0 0 1.91351e-09 2.94437e-09 
0 6.71969e-07 1.48426e-09 3.93813e-10 0 9.10217e-07 0 0 6.96714e-10 
1.12287e-09 0 0 0 0 0 0 0 0 
0 0 0 0 0 0 0 0 0 
0 0 0 0 0 0 0 0 0 
0 0 0 7.02729e-10 0 0 0 0 0 
2.94483e-09 1.97604e-09 0 9.88025e-10 0 0 1.4396e-09 0 0 
0 0 0 0 0 0 0 0 1.14646e-09 
0 1.23874e-09 2.68166e-09 0 0 2.45782e-09 0 0 0 
1.12303e-09 0 0 2.0367e-09 0 8.30344e-10 1.51475e-09 0 0 
6.22263e-09 0 0 9.3939e-07 0 1.33775e-09 0 3.75454e-09 0 
9.62761e-10 4.51141e-09 0 2.23135e-09 3.06475e-09 0 6.60435e-07 0 0 
2.18543e-09 0 3.98218e-09 1.68024e-09 3.44481e-09 0 0 0 0 
0 0 0 0 0 0 0 0 0 
0 0 0 0 0 0 0 0 0 
0 0 0 0 0 0 0 0 0 
0 6.08684e-09 6.71908e-07 5.52167e-09 0 4.51148e-10 0 0 0 
2.82482e-10 6.6434e-10 1.6953e-09 8.35859e-10 0 0 0 0 6.47554e-07 
0 0 0 0 0 0 0 0 0 
0 0 6.79127e-09 0 0 4.06401e-09 0 1.30805e-09 0 
0 1.5729e-09 0 0 0 9.96594e-10 0 0 0 
0 0 1.43479e-09 0 9.04096e-07 0 0 4.16794e-09 0 
6.90776e-07 0 1.42587e-09 6.80736e-07 4.26889e-09 0 0 4.90499e-09 2.68457e-09 
0 2.32455e-09 0 0 0 0 0 0 2.02528e-09 
1.74969e-09 8.1553e-10 0 0 0 0 0 0 0 
0 0 0 0 0 0 0 0 0 
0 0 0 0 0 0 0 0 0 
0 0 0 0 0 6.45868e-10 1.35306e-10 0 0 
0 0 0 0 0 0 0 0 0 
1.18029e-09 0 0 0 5.00268e-10 0 0 0 0 
1.34168e-09 0 0 0 0 0 7.58242e-07 0 0 
0 1.46165e-09 0 0 0 0 0 0 0 
0 0 0 0 0 0 0 1.15627e-09 0 
0 7.19892e-10 0 9.64447e-10 4.39633e-09 0 5.85473e-09 0 0 
0 0 0 0 0 5.24851e-09 4.1677e-09 0 9.0182e-10 
0 0 0 0 0 0 0 0 0 
0 0 0 0 0 0 0 0 0 
0 0 0 0 0 0 0 0 0 
0 0 0 0 0 3.69477e-09 0 0 0 
3.80769e-10 0 3.15706e-09 0 0 0 4.83006e-11 0 1.11635e-09 
0 0 0 0 0 0 0 0 0 
4.61043e-10 0 0 1.45883e-09 0 0 0 0 2.82328e-09 
3.07273e-09 0 0 0 6.7426e-07 0 0 0 0 
0 0 1.46655e-09 0 0 0 0 0 0 
0 0 6.08113e-10 0 0 0 0 2.36323e-09 0 
1.00959e-09 0 4.20569e-09 0 0 7.71769e-07 0 0 0 
0 0 0 0 0 0 0 0 0 
0 0 0 0 0 0 0 0 0 
0 0 0 0 0 0 0 2.04873e-10 0 
9.59e-10 0 0 8.68191e-07 8.84588e-07 0 0 0 0 
0 0 0 6.40411e-09 0 0 0 0 2.79145e-10 
8.27772e-10 0 0 1.90481e-09 0 0 0 0 0 
0 0 0 0 0 0 0 8.66522e-07 1.20755e-09 
0 0 0 0 4.91251e-09 0 0 0 6.69356e-07 
0 0 0 0 6.55776e-07 0 0 0 0 
3.84864e-10 0 0 2.53319e-09 0 0 0 0 0 
0 0 6.7859e-07 0 0 0 0 7.60068e-07 0 
0 0 4.02819e-10 0 0 0 0 0 0 
0 0 0 0 0 0 0 0 0 
0 0 0 0 0 0 0 0 0 
0 1.59647e-09 0 0 0 0 5.63397e-09 0 0 
1.7353e-09 0 0 0 0 6.40934e-07 7.46239e-09 3.21485e-09 0 
0 8.84276e-10 0 1.88785e-09 6.46916e-07 0 1.73068e-09 0 0 
3.42743e-10 0 0 0 0 0 0 0 0 
0 0 0 0 4.67396e-09 6.67136e-10 0 0 7.49121e-10 
0 5.66586e-09 0 0 0 0 0 1.05757e-09 0 
1.74798e-09 0 6.54265e-07 0 0 0 2.48293e-09 0 0 
6.78331e-07 0 0 2.69301e-09 0 1.40097e-09 0 0 0 
0 0 0 0 0 0 0 0 0 
0 0 0 0 0 0 0 0 0 
0 0 0 0 0 0 0 0 0 
0 0 6.84707e-10 0 1.84846e-09 0 0 0 0 
0 0 1.47008e-09 0 0 0 1.66493e-09 0 0 
0 0 0 0 0 3.17884e-09 0 0 0 
0 5.10402e-10 0 0 0 0 0 9.80957e-07 1.14321e-06 
1.03667e-06 0 0 1.77161e-09 7.6553e-07 0 0 3.20337e-09 0 
0 0 0 0 0 0 0 0 0 
0 0 2.11414e-09 2.42598e-09 0 1.02029e-09 3.41664e-09 0 0 
1.22364e-09 0 0 0 0 0 0 1.62313e-09 0 
3.07253e-09 0 0 0 0 0 0 0 0 
0 0 0 0 0 0 0 0 0 
0 0 0 0 0 0 0 0 0 
0 0 0 0 0 3.17027e-09 0 0 7.26772e-09 
8.67135e-07 0 0 0 0 0 0 0 0 
0 0 0 0 0 0 0 0 1.02587e-09 
0 0 0 0 0 0 0 0 0 
2.1821e-09 0 0 0 0 0 5.9628e-09 7.27025e-07 0 
0 3.88954e-09 0 0 0 5.08241e-10 0 0 0 
0 9.38494e-10 0 0 0 0 0 0 6.57669e-07 
0 0 0 0 4.00757e-10 0 0 5.14749e-10 0 
0 0 0 0 0 0 0 0 0 
0 0 0 0 0 0 0 0 0 
0 0 0 0 0 0 0 0 0 
0 0 0 0 0 0 0 0 0 
0 8.57199e-07 0 7.27218e-10 0 0 0 0 0 
0 0 0 0 0 0 9.90996e-10 0 1.06319e-09 
0 0 0 0 0 0 9.73722e-10 0 0 
0 1.72345e-09 0 2.3243e-09 0 7.32773e-07 0 0 4.08286e-09 
0 0 0 0 4.44943e-10 0 0 0 0 
5.02673e-10 0 0 0 0 0 0 0 0 
0 0 2.02902e-09 0 0 0 0 0 0 
0 0 0 4.76115e-10 0 0 0 0 0 
0 0 0 0 0 0 0 0 0 
0 0 0 0 0 0 0 0 0 
0 0 0 0 0 0 0 0 0 
0 0 1.81482e-08 0 2.54582e-09 0 0 0 0 
0 0 0 0 0 0 0 0 0 
0 0 0 0 0 1.22499e-09 0 2.51644e-09 0 
4.35145e-09 7.03547e-07 2.95055e-09 0 0 0 6.81389e-09 3.93282e-09 5.89011e-09 
0 0 0 0 8.58051e-07 0 0 0 0 
0 0 0 0 0 0 0 0 0 
0 0 1.58088e-09 7.00405e-10 0 2.24505e-09 2.2797e-09 0 0 
1.20009e-09 0 0 0 0 0 0 0 0 
0 0 0 0 0 0 0 0 0 
0 0 0 0 0 0 0 0 0 
0 0 0 0 0 0 0 0 0 
0 0 1.94127e-09 4.30642e-10 0 0 0 0 0 
0 2.99952e-10 0 0 0 0 0 0 0 
2.46256e-10 0 0 0 0 3.15205e-09 0 5.80131e-09 1.27017e-09 
0 0 1.93777e-09 0 9.60185e-10 1.68617e-09 0 1.93024e-09 0 
1.24727e-09 0 0 0 2.65544e-09 8.54076e-07 0 3.88493e-09 1.89046e-09 
0 0 0 0 0 0 0 0 0 
0 0 0 0 5.82073e-10 5.87961e-10 0 0 2.34746e-09 
0 0 0 0 0 0 0 0 0 
0 0 0 0 0 0 0 0 0 
0 0 0 0 0 0 0 0 0 
0 0 0 0 0 0 0 4.03852e-09 0 
0 0 7.08298e-10 1.02675e-09 0 0 0 0 0 
0 3.5912e-10 0 0 0 0 0 0 0 
0 0 0 0 0 0 1.09878e-09 3.27542e-09 0 
0 0 0 1.7797e-09 0 0 0 0 0 
6.57431e-10 0 0 0 0 0 0 0 0 
0 0 0 0 0 9.15348e-10 0 0 0 
0 0 0 0 0 0 1.42419e-09 0 6.48107e-07 
0 1.71594e-09 0 0 0 0 0 0 0 
0 0 0 0 0 0 0 0 0 
0 0 0 0 0 0 0 0 0 
0 0 0 0 0 0 0 8.53654e-10 6.40117e-07 
0 0 1.16059e-09 0 0 0 2.52364e-10 0 1.19949e-09 
8.287e-10 0 0 0 0 0 0 0 0 
0 0 0 0 4.05638e-10 0 0 0 6.49388e-10 
0 0 0 0 0 0 0 0 0 
0 0 0 0 0 1.4878e-09 0 5.05231e-09 0 
1.74718e-09 0 1.20265e-10 0 4.32174e-09 0 0 0 0 
0 0 0 0 0 0 0 0 3.12376e-09 
2.18085e-09 0 0 0 0 0 0 0 0 
0 0 0 0 0 0 0 0 0 
0 0 0 0 0 0 0 0 0 
0 0 0 0 0 0 0 0 2.18904e-09 
1.69858e-09 0 7.93938e-10 8.57837e-10 0 0 9.9254e-10 0 0 
0 0 0 0 0 0 0 0 0 
0 0 0 0 8.05093e-10 0 0 0 1.30507e-09 
0 0 0 0 0 0 0 0 0 
0 0 0 0 0 0 0 0 0 
0 0 2.74362e-09 0 1.41157e-09 6.77117e-07 0 0 0 
0 0 0 0 0 0 0 0 0 
0 0 0 0 0 0 0 1.25806e-09 0 
0 0 0 0 0 0 0 0 0 
0 0 0 0 0 0 0 0 0 
0 0 0 0 0 0 0 0 0 
0 2.13326e-09 1.89243e-09 0 0 0 0 2.88018e-09 6.54283e-07 
4.67264e-09 0 0 2.00638e-09 0 0 0 0 0 
1.92719e-10 0 0 0 0 7.13173e-10 0 0 0 
0 0 0 0 0 0 0 0 0 
0 0 0 0 0 0 0 0 0 
0 0 2.44364e-09 0 0 0 0 0 3.42647e-09 
0 0 5.75259e-10 0 0 0 0 0 0 
1.10878e-09 0 0 0 0 0 0 0 0 
0 0 0 6.6328e-10 1.54765e-10 0 0 0 0 
0 0 0 0 0 0 0 0 0 
0 0 0 0 0 0 0 0 0 
0 0 0 0 0 0 0 0 0 
0 0 4.19801e-09 2.15978e-10 6.67899e-07 0 0 1.62058e-09 0 
0 0 0 0 0 0 0 0 0 
0 0 0 0 1.14573e-09 0 0 2.52946e-09 0 
0 0 0 0 0 4.37614e-10 0 0 0 
0 8.78978e-10 0 0 5.5646e-09 0 6.29437e-09 0 0 
4.67323e-09 5.79439e-10 0 0 0 0 0 0 0 
2.40372e-10 3.94611e-10 2.12396e-09 0 6.48115e-07 4.32983e-09 0 0 3.122e-09 
0 1.95265e-09 0 0 0 0 0 0 0 
0 0 0 0 0 0 0 0 0 
0 0 0 0 0 0 0 0 0 
0 0 0 0 0 0 0 0 0 
0 0 0 0 0 0 0 0 0 
0 0 0 9.48155e-10 3.2516e-09 0 0 2.39842e-09 0 
2.33095e-09 0 0 0 0 0 3.02607e-09 6.41512e-07 0 
4.66468e-09 0 0 0 0 0 0 0 0 
6.42841e-07 4.81614e-09 0 1.69287e-09 0 0 0 0 0 
9.21025e-09 6.58102e-07 0 2.53329e-09 0 0 0 0 0 
0 0 1.00879e-09 0 0 1.50787e-09 0 0 0 
0 0 8.49812e-07 0 0 0 0 0 0 
0 0 0 0 0 0 0 0 0 
0 0 0 0 0 0 0 0 0 
0 0 0 0 0 0 0 0 0 
0 0 0 0 0 0 4.837e-09 0 0 
1.59219e-09 3.26558e-10 0 0 5.98741e-10 0 6.6544e-07 0 3.95242e-09 
0 0 0 0 0 0 2.19088e-09 6.99451e-10 0 
0 0 0 0 1.78862e-10 0 0 0 0 
0 0 1.9358e-09 0 0 0 0 0 0 
0 0 1.90306e-09 2.71992e-09 0 0 0 0 0 
0 0 0 0 0 0 0 0 1.27784e-09 
9.61625e-10 2.699e-09 0 8.49568e-07 5.382e-09 0 0 0 0 
0 0 0 0 0 0 0 0 0 
0 0 0 0 0 0 0 0 0 
0 0 0 0 0 0 0 0 1.23172e-09 
0 2.16741e-09 0 0 0 0 6.88959e-07 2.71091e-09 0 
1.08891e-09 1.31806e-09 0 0 0 0 0 0 0 
0 0 0 8.06034e-07 1.02813e-09 0 0 0 0 
0 6.37189e-10 0 0 0 0 0 4.24775e-10 0 
2.43787e-09 0 0 0 0 0 0 0 0 
1.19032e-09 0 0 0 0 0 0 0 0 
0 0 0 0 0 0 0 0 0 
0 0 0 0 0 0 1.3668e-09 6.73645e-10 0 
0 0 0 0 0 0 0 0 0 
0 0 0 0 0 0 0 0 0 
0 0 0 0 0 0 3.60499e-09 1.34995e-09 0 
0 0 0 2.96297e-09 0 0 0 0 3.31051e-09 
0 0 0 0 0 0 0 0 0 
0 0 7.28702e-07 0 2.76559e-09 7.80202e-07 9.47661e-09 0 0 
1.78603e-09 1.07845e-09 0 0 0 0 0 0 0 
0 0 0 0 0 0 0 0 0 
0 0 0 0 0 0 0 0 0 
0 0 0 0 0 0 0 0 0 
0 0 0 0 0 0 2.16073e-09 2.49339e-09 0 
0 0 0 0 0 0 0 0 0 
0 0 0 0 0 0 0 0 0 
0 0 0 0 0 0 0 6.43314e-07 0 
0 0 0 0 8.73269e-07 3.9491e-09 0 0 0 
0 0 0 0 0 0 0 6.55411e-07 1.84356e-09 
0 0 3.52094e-09 7.85334e-09 0 0 0 0 3.85943e-09 
0 0 0 0 0 0 0 7.04135e-10 0 
0 0 0 0 8.34741e-10 0 0 0 0 
0 0 0 0 0 0 0 0 0 
0 0 0 0 0 0 0 0 0 
0 0 0 0 0 0 3.07185e-10 7.03327e-10 0 
0 0 0 0 0 0 0 0 0 
0 0 0 0 0 0 0 0 0 
0 0 0 0 0 0 0 0 4.27523e-09 