# vtk DataFile Version 5.1
vtk output
ASCII
DATASET STRUCTURED_POINTS
DIMENSIONS 100 100 1
SPACING 1 1 1
ORIGIN 0 0 0
POINT_DATA 10000
FIELD FieldData 6
feature_1 1 10000 float
0 0 0 0 0 0 0 0 0 
0 0 0 0 0 0 0 0 0 
0 0 0 0 0 0 0 0 0 
0 0 0 0 0 0 0 0 0 
0 0 0 0 0 0 0 0 0 
0 0 0 0 0 0 0 0 0 
0 0 0 0 0 0 0 0 0 
0 0 0 0 0 0 0 0 0 
0 0 0 0 0 0 0 0 0 
0 0 0 0 0 0 0 0 0 
0 0 0 0 0 0 0 0 0 
0 0 0 0 0 0 0 0 0 
0 0 0 0 0 0 0 0 0 
0 0 0 0 0 0 0 0 0 
0 0 0 0 0 0 0 0 0 
0 0 0 0 0 0 0 0 0 
0 0 0 0 0 0 0 0 0 
0 0 0 0 0 0 0 0 0 
0 0 0 0 0 0 0 0 0 
0 0 0 0 0 4.67955e-11 0 0 0 
0 0 0 0 0 0 0 0 0 
0 0 0 0 0 0 0 0 0 
0 0 0 0 0 0 0 0 0 
0 0 0 0 0 0 0 0 0 
0 0 0 0 0 0 0 0 0 
0 0 0 0 0 0 0 0 0 
0 0 0 0 0 0 0 0 0 
0 0 0 0 0 0 0 0 0 
0 0 0 0 0 0 0 0 0 
0 0 0 0 0 0 0 0 0 
0 0 0 0 0 0 0 0 0 
0 0 0 0 0 0 0 0 0 
0 0 0 0 0 0 0 0 0 
0 0 0 0 0 0 0 0 0 
0 0 0 0 0 0 0 0 0 
0 0 0 0 0 0 0 0 0 
0 0 0 0 0 0 0 0 0 
0 0 0 0 0 0 0 0 0 
0 0 0 0 0 0 0 0 0 
0 0 0 0 0 0 0 0 0 
0 0 0 0 0 0 0 0 0 
0 2.20438e-11 0 0 0 0 0 0 0 
0 0 0 0 0 0 0 0 0 
0 0 0 0 0 0 0 0 0 
0 0 0 0 0 0 0 0 0 
0 0 0 0 0 0 0 0 0 
0 0 0 0 0 0 0 0 0 
0 0 0 0 0 0 0 0 0 
0 0 0 0 0 0 0 0 0 
0 0 0 0 0 0 0 0 0 
0 0 0 0 0 0 0 0 0 
0 0 0 0 0 0 0 0 0 
0 0 0 0 0 0 0 0 0 
0 0 0 0 0 0 0 0 0 
0 0 0 0 0 0 0 0 0 
0 0 0 0 0 0 0 0 0 
0 0 0 0 0 0 0 0 0 
0 0 0 0 0 0 0 0 0 
0 0 0 0 0 0 0 0 0 
0 0 0 0 0 0 0 0 0 
0 0 0 0 0 0 0 3.14471e-12 0 
0 0 0 0 0 0 0 0 0 
0 0 0 0 0 0 0 0 0 
0 0 0 0 0 0 0 0 0 
0 0 0 0 0 0 0 0 0 
0 0 0 0 0 0 0 0 0 
0 0 0 0 0 0 0 0 0 
0 0 0 0 0 0 0 0 0 
0 0 0 0 0 0 0 0 0 
0 0 0 0 0 0 0 0 0 
0 0 0 0 0 0 0 0 0 
0 0 0 0 0 0 0 0 0 
0 0 0 0 0 0 0 0 0 
0 0 0 0 0 0 0 0 0 
0 0 0 0 0 0 0 0 0 
0 0 0 0 0 0 0 0 0 
0 0 0 0 0 0 0 0 0 
0 0 0 0 0 0 0 0 0 
0 0 0 0 0 0 0 0 0 
0 0 0 0 0 0 0 0 0 
0 0 0 0 0 0 0 0 0 
0 0 0 0 0 0 0 0 0 
0 0 0 0 0 0 0 0 0 
0 0 0 0 0 0 0 0 0 
0 0 0 0 0 0 0 0 0 
0 0 0 0 0 0 0 0 0 
0 0 0 0 0 0 0 0 0 
0 0 0 0 0 0 0 0 0 
0 0 0 0 0 0 0 0 0 
0 0 0 0 0 0 0 0 0 
0 0 0 0 0 0 0 0 0 
0 0 0 0 0 0 0 0 0 
0 0 0 0 0 0 0 0 0 
0 0 0 0 0 0 0 0 0 
0 0 0 0 0 0 0 0 0 
0 0 0 0 0 0 0 0 0 
0 0 0 0 0 0 0 0 0 
0 0 0 0 0 0 0 0 0 
0 0 0 0 0 0 0 0 0 
0 0 0 0 0 0 0 0 0 
0 0 0 0 0 0 0 0 0 
0 0 0 0 0 0 0 0 0 
0 0 0 0 0 0 0 0 0 
0 0 0 0 0 0 0 0 0 
0 0 0 0 0 0 0 0 0 
0 0 0 0 0 0 0 0 0 
0 0 0 0 0 0 0 0 0 
0 0 0 0 0 0 0 0 0 
0 0 0 0 0 0 0 0 0 
0 0 0 0 0 0 0 0 0 
0 0 0 0 0 0 0 0 0 
0 0 0 0 0 0 0 0 0 
0 0 0 4.249e-11 0 0 0 0 0 
0 0 0 0 0 0 0 0 0 
0 0 0 0 0 0 0 0 0 
0 0 0 0 0 0 0 0 0 
0 1.69721e-09 0 0 0 0 0 0 0 
0 0 0 0 0 0 0 2.29675e-09 4.46985e-10 
0 0 0 0 0 0 0 0 0 
0 0 0 0 0 0 0 0 0 
0 0 0 0 0 0 0 0 0 
0 0 0 0 0 0 0 0 0 
0 0 0 0 0 0 0 0 0 
0 0 0 0 0 0 0 0 0 
0 0 0 0 0 0 0 0 0 
0 0 0 0 0 0 0 0 0 
0 0 0 0 0 0 0 0 9.86129e-10 
0 0 0 0 0 0 0 0 0 
0 0 0 0 0 0 0 0 0 
0 0 0 0 0 0 0 0 0 
0 0 0 0 0 0 0 0 0 
0 0 0 0 0 0 0 0 0 
0 0 0 0 0 0 0 0 0 
0 0 0 0 0 0 0 0 0 
0 0 0 0 0 0 0 0 0 
0 0 0 0 0 0 0 0 0 
0 0 0 0 0 0 0 0 0 
0 0 0 0 0 0 0 0 0 
0 0 0 7.92757e-07 6.08983e-09 2.44206e-09 0 9.72781e-10 0 
0 0 0 0 0 0 1.96262e-09 1.12137e-09 6.44974e-07 
1.75726e-09 0 0 0 0 0 0 0 0 
0 0 0 0 0 0 0 0 0 
0 0 0 0 0 0 0 0 0 
0 0 0 0 0 0 0 0 0 
0 0 0 0 0 0 0 0 0 
0 0 0 0 0 0 0 0 0 
0 0 0 0 0 0 0 0 0 
0 0 0 0 4.17809e-10 0 0 0 0 
0 0 0 1.31878e-09 0 0 0 0 0 
3.06622e-09 0 0 8.33483e-07 0 6.52771e-09 0 0 0 
8.04532e-10 0 0 0 0 0 0 0 0 
0 0 1.76924e-09 1.16006e-09 8.70113e-10 0 0 0 0 
0 0 0 0 0 0 0 0 0 
0 1.65646e-09 0 0 0 0 0 0 0 
0 0 0 0 0 0 0 0 0 
0 0 0 0 0 0 0 0 0 
0 0 0 0 0 0 0 0 0 
0 0 0 0 0 0 0 0 0 
0 0 0 0 4.52966e-09 6.46933e-07 0 0 0 
0 0 0 1.8009e-09 0 7.51835e-09 0 0 1.3555e-09 
0 0 0 0 0 0 0 0 1.53507e-09 
0 0 0 0 0 0 0 0 0 
0 0 0 0 0 0 0 0 0 
0 0 0 0 0 0 1.09963e-09 0 0 
6.46179e-07 1.35718e-09 0 8.37989e-10 0 0 0 0 0 
0 0 0 0 0 0 0 0 0 
0 0 0 0 0 0 0 0 0 
0 0 0 0 0 0 0 0 0 
0 0 0 0 0 0 0 0 0 
0 0 0 0 0 0 0 0 0 
0 0 0 0 1.01449e-09 3.80052e-09 0 4.35962e-09 2.63658e-09 
0 0 0 0 0 0 7.98661e-07 0 0 
8.61315e-10 0 0 0 0 0 0 0 0 
0 0 1.36309e-09 0 0 0 0 0 0 
0 0 0 0 1.05635e-09 0 0 0 0 
0 7.93644e-11 0 0 4.92717e-10 0 0 0 0 
0 0 0 0 0 0 0 0 0 
0 0 0 0 0 0 0 0 0 
0 0 0 0 0 0 0 0 0 
0 0 0 0 0 0 0 0 0 
0 0 0 0 0 0 1.92054e-09 0 0 
7.57345e-10 0 0 3.33041e-10 0 0 2.41204e-09 0 0 
0 0 9.23463e-10 0 0 7.41674e-07 1.18729e-08 0 0 
0 0 6.8968e-07 0 7.67961e-10 9.98673e-10 0 0 0 
0 0 0 0 1.39355e-09 0 1.87682e-09 0 1.57629e-09 
0 2.11777e-09 0 0 0 0 0 0 0 
0 0 0 4.98768e-10 0 0 0 0 0 
0 0 0 0 0 0 0 0 0 
0 0 0 0 0 0 0 0 0 
0 0 0 0 0 0 0 0 0 
0 0 0 0 0 0 0 0 0 
0 0 0 0 0 0 1.32001e-09 5.12856e-09 0 
2.09565e-09 0 0 0 0 0 0 0 2.03511e-09 
1.75742e-09 0 0 0 1.23811e-09 1.75019e-09 0 0 2.18135e-09 
0 0 0 0 0 0 6.69308e-10 0 0 
0 0 0 0 0 0 0 7.18988e-07 0 
7.1909e-07 7.88946e-09 0 0 0 0 0 0 6.67353e-07 
0 0 2.08304e-11 0 0 0 0 0 0 
0 0 0 0 0 0 0 0 0 
0 0 0 0 0 0 0 0 0 
0 0 0 0 0 0 0 0 0 
0 0 0 0 0 0 0 0 0 
0 4.74565e-11 0 0 0 3.54402e-09 0 1.35232e-09 0 
0 0 0 0 0 0 0 0 1.65584e-09 
0 0 0 0 0 0 0 0 0 
0 0 0 0 0 0 1.72996e-09 0 0 
0 0 0 0 0 0 0 0 0 
0 0 2.15708e-09 0 0 0 0 1.1307e-09 0 
0 0 2.04458e-09 2.02437e-09 1.25468e-09 0 0 0 0 
0 0 0 0 0 0 0 0 0 
0 0 0 0 0 0 0 0 0 
0 0 0 0 0 0 0 0 0 
0 0 0 0 0 0 0 0 0 
0 0 0 0 0 0 0 1.83869e-09 1.61503e-09 
3.8081e-09 6.49567e-07 0 0 0 0 0 0 0 
0 0 0 0 6.50201e-07 0 0 0 0 
0 8.985e-07 9.15217e-07 0 1.75527e-09 7.20319e-07 0 0 0 
0 0 0 0 0 0 0 1.83836e-09 0 
0 1.59312e-09 0 0 0 1.49675e-09 0 1.64233e-09 0 
1.98955e-09 0 7.47015e-10 1.30804e-09 1.14272e-09 0 0 0 0 
0 0 0 0 0 0 0 0 0 
0 0 0 0 0 0 0 0 0 
0 0 0 0 0 0 0 0 0 
0 0 0 0 0 0 0 0 0 
0 0 0 5.93217e-10 1.82665e-09 4.2723e-09 6.46968e-07 5.47475e-09 0 
0 2.6187e-09 3.42471e-09 0 0 0 0 0 2.25748e-10 
0 0 0 0 0 0 0 0 1.47585e-09 
0 0 0 0 0 0 1.65387e-09 0 1.1459e-09 
0 0 1.24035e-09 0 0 0 0 0 0 
0 0 0 0 0 0 1.70909e-10 0 0 
0 6.68493e-07 1.11235e-09 0 0 0 0 0 0 
0 0 0 0 0 0 0 1.57692e-09 0 
0 0 0 0 0 0 0 0 0 
0 0 0 0 0 0 0 0 0 
0 0 0 0 0 0 0 0 0 
0 0 0 0 0 1.04446e-09 0 0 5.02372e-09 
1.93516e-09 0 1.51304e-09 0 1.57904e-09 0 0 0 0 
0 7.8482e-10 0 0 0 0 0 0 0 
1.46501e-09 0 0 0 0 0 0 3.07833e-09 0 
1.41336e-09 0 0 0 0 0 0 0 0 
0 0 4.96411e-10 0 0 1.77351e-09 2.43836e-11 0 0 
0 0 0 0 6.30064e-10 0 0 0 1.71378e-09 
0 0 0 0 0 0 1.35354e-09 4.99108e-09 0 
0 0 0 0 0 0 0 0 0 
0 0 0 0 0 0 0 0 0 
0 0 0 0 0 0 0 0 0 
0 0 0 0 0 0 0 0 0 
0 0 0 0 0 0 0 0 0 
0 0 0 0 0 0 0 0 0 
0 0 0 0 0 1.98773e-09 0 0 2.48682e-10 
0 3.92582e-10 0 0 0 0 0 0 0 
0 0 0 0 0 0 0 4.4104e-09 0 
0 0 0 0 0 1.70717e-09 0 0 0 
0 0 0 0 0 0 0 0 0 
7.19001e-07 0 1.80901e-09 1.517e-09 0 0 0 0 0 
0 0 0 0 0 0 0 0 0 
0 0 0 0 0 0 0 0 0 
0 0 0 0 0 1.36549e-09 0 0 0 
0 0 0 0 0 0 0 1.51262e-09 0 
0 0 7.52962e-10 3.56266e-10 0 0 7.34676e-10 0 0 
1.96376e-10 0 0 0 1.58226e-09 0 0 8.76563e-07 8.73889e-07 
0 0 0 0 0 0 0 0 5.58936e-10 
0 0 0 0 0 0 0 0 6.4659e-07 
0 0 0 2.97337e-10 0 0 0 0 0 
0 6.54888e-07 0 0 0 0 0 0 2.87062e-09 
5.7875e-09 0 0 0 0 0 0 0 0 
0 0 0 0 0 0 0 0 0 
0 0 0 0 0 0 0 0 0 
6.70595e-10 0 0 0 0 0 0 1.10018e-09 0 
0 0 0 0 0 0 0 0 0 
1.20034e-09 0 0 0 0 7.38385e-10 0 0 0 
0 0 0 0 0 1.79081e-09 0 0 3.3471e-09 
0 0 2.00657e-09 1.60832e-10 0 0 6.45948e-07 1.75046e-09 0 
9.47263e-10 0 0 0 0 0 0 2.72354e-09 0 
0 0 0 0 0 0 4.79751e-09 0 0 
0 0 1.38381e-09 3.7167e-10 3.78001e-09 0 1.20963e-09 0 1.02705e-09 
1.4808e-09 0 7.25565e-07 0 0 0 0 0 0 
0 0 0 0 0 0 0 0 0 
0 0 0 0 0 0 0 0 0 
0 0 0 1.04161e-09 1.18065e-09 2.03238e-10 0 0 0 
0 0 0 0 0 0 0 0 0 
0 0 2.95166e-09 0 9.51533e-10 0 8.48319e-10 1.36693e-10 0 
0 0 0 0 0 0 0 1.96871e-09 0 
4.38754e-09 0 0 0 2.5986e-09 0 0 2.5641e-09 9.17757e-10 
0 3.81103e-11 1.12051e-09 0 0 0 0 6.2072e-10 0 
0 0 1.39571e-09 1.07631e-09 0 0 8.93226e-09 6.54669e-07 4.60892e-09 
0 0 0 0 0 0 0 5.88697e-10 0 
0 0 3.84433e-09 0 0 3.50109e-10 0 0 0 
0 0 0 0 0 0 0 0 0 
0 0 0 0 0 0 0 0 0 
0 0 0 0 0 0 0 0 0 
7.1868e-07 0 0 0 0 0 0 0 0 
0 0 4.14785e-09 6.47143e-07 0 0 1.57252e-09 3.83136e-09 6.9885e-07 
0 2.37824e-09 1.57449e-09 0 0 0 0 1.2234e-09 0 
0 0 0 0 1.40315e-09 0 0 0 0 
0 0 0 0 0 0 0 0 7.79613e-10 
0 0 1.1328e-09 0 1.90199e-09 0 0 0 3.1658e-09 
0 0 2.89916e-09 0 0 0 0 1.08169e-09 0 
0 0 0 2.79247e-09 0 0 2.56845e-09 0 0 
0 0 0 0 0 0 0 0 0 
0 0 0 0 0 0 0 0 0 
0 0 0 6.5991e-07 0 0 0 0 7.75498e-07 
0 0 0 0 0 0 0 0 0 
0 0 0 0 0 0 0 0 0 
0 0 7.06235e-07 0 0 3.91992e-09 0 0 0 
0 8.61022e-10 2.86574e-09 4.89919e-11 0 6.91425e-10 0 0 0 
1.12032e-09 0 0 0 0 0 0 0 0 
0 9.94944e-10 0 0 0 0 0 0 0 
0 0 0 0 0 6.56214e-07 0 0 1.37088e-09 
0 4.76744e-10 0 0 6.09021e-10 8.51447e-10 0 1.48919e-09 0 
0 0 0 0 0 0 0 0 0 
0 0 0 0 0 0 0 0 0 
0 0 1.52261e-09 4.19816e-09 0 0 0 0 0 
0 0 3.51478e-09 2.22137e-09 0 0 1.16795e-09 0 0 
0 0 0 0 1.20838e-09 0 0 0 0 
1.59571e-09 0 0 0 0 0 2.28826e-09 6.05126e-09 3.65241e-09 
0 5.92586e-09 7.04312e-07 0 0 3.06024e-10 0 0 0 
0 0 0 0 3.91845e-09 2.92551e-09 4.82263e-09 1.66238e-09 0 
0 0 4.90385e-10 0 0 0 2.04693e-09 0 0 
0 0 2.46368e-09 0 0 0 0 0 0 
0 0 0 0 0 6.73279e-07 0 0 0 
1.66204e-10 0 0 0 0 0 0 0 0 
0 0 0 0 0 0 0 0 0 
0 0 0 0 0 0 1.48142e-09 0 7.11357e-07 
9.18312e-09 1.14389e-09 7.43771e-07 4.82765e-09 2.67435e-09 0 0 0 0 
0 6.0548e-10 0 0 0 0 0 0 0 
0 1.15844e-09 1.4448e-09 0 0 0 0 0 0 
0 0 0 7.24787e-09 0 0 0 0 0 
0 0 0 0 1.30897e-09 0 6.59199e-07 4.61743e-09 2.4532e-09 
0 0 0 0 0 0 6.50326e-07 2.2389e-09 1.71191e-09 
0 0 6.65862e-09 3.57295e-09 2.63129e-09 0 0 0 9.29984e-10 
0 0 0 0 0 0 0 0 0 
0 0 0 0 0 0 0 0 0 
0 0 0 0 0 0 0 0 0 
0 0 0 0 0 0 2.17879e-09 2.12694e-09 0 
0 0 0 0 0 6.17884e-10 1.47526e-09 0 2.83955e-09 
0 0 2.82402e-09 1.56809e-09 0 0 0 0 0 
0 0 3.82579e-10 0 0 0 0 0 0 
7.02462e-07 0 0 7.23919e-07 4.83731e-09 0 0 0 0 
0 0 0 0 0 0 0 2.60621e-09 0 
0 0 0 1.76921e-09 1.41878e-09 0 4.611e-09 0 3.5823e-09 
0 2.32527e-11 4.1783e-09 6.50627e-07 0 0 1.11224e-09 0 1.20463e-09 
0 0 0 0 1.93317e-09 0 0 0 0 
0 0 5.29844e-10 0 0 0 0 0 0 
0 0 0 0 0 0 0 0 0 
0 0 0 0 0 0 0 0 5.0274e-10 
0 0 0 0 0 0 2.13583e-09 3.34549e-09 0 
0 8.71879e-07 0 0 0 0 0 0 0 
0 0 0 0 0 0 0 7.20942e-07 0 
5.56747e-09 0 0 0 0 0 0 0 0 
0 0 0 1.98473e-10 1.61858e-09 2.52782e-09 2.02985e-09 3.82859e-09 0 
0 0 0 0 0 0 0 0 0 
0 0 0 0 0 0 0 4.43921e-12 0 
1.46605e-12 0 0 0 0 6.26743e-12 0 6.76235e-07 4.69515e-09 
0 0 0 0 0 0 0 0 0 
0 0 0 0 0 0 0 0 0 
0 0 0 0 0 0 0 0 2.76541e-10 
0 1.3631e-09 1.27635e-09 0 1.6589e-09 0 0 2.13577e-10 0 
3.96392e-09 0 8.85216e-07 0 0 0 0 0 0 
0 0 0 0 0 2.70997e-09 0 5.66529e-09 0 
0 0 3.29531e-09 2.87903e-09 0 0 0 0 1.28725e-09 
0 0 0 0 0 0 0 5.20718e-07 6.12821e-10 
0 3.21816e-09 0 0 0 0 2.49272e-09 3.37182e-09 0 
0 0 1.29435e-09 1.93911e-09 0 0 0 0 0 
0 0 0 0 0 0 1.96327e-09 0 0 
0 0 0 0 0 0 0 0 0 
0 0 0 0 0 0 0 0 3.49467e-11 
0 0 0 0 0 0 0 0 0 
0 0 0 0 0 0 8.85809e-10 0 0 
0 0 0 0 0 5.65254e-09 6.84713e-07 4.538e-09 0 
0 0 0 0 7.9527e-10 0 0 0 0 
0 0 0 0 0 0 0 0 0 
0 0 0 0 0 0 0 0 5.62946e-09 
0 0 0 0 7.48488e-07 0 8.04905e-07 0 0 
0 0 0 0 0 0 0 0 0 
0 0 0 0 0 3.76447e-09 6.55948e-07 0 0 
0 0 0 0 0 0 0 0 0 
0 0 0 0 0 0 0 0 0 
0 0 0 0 0 0 0 0 0 
0 0 0 0 0 0 0 0 0 
2.37977e-09 1.47852e-09 0 0 0 0 1.63023e-09 4.48473e-09 7.86208e-10 
0 1.76811e-09 0 0 0 0 0 0 0 
8.99336e-07 9.1362e-07 0 4.20694e-09 3.96943e-10 9.82543e-11 0 0 4.53407e-09 
0 0 0 0 0 0 0 0 0 
7.83927e-10 1.33282e-09 1.94562e-09 0 0 0 0 3.60775e-09 0 
1.89365e-09 0 0 0 0 9.64536e-10 7.83723e-10 0 0 
0 0 0 0 0 0 2.25508e-09 2.42585e-09 0 
2.66671e-09 0 0 0 0 0 0 0 0 
0 0 0 0 0 0 0 0 0 
0 0 0 0 0 0 0 0 0 
0 0 0 0 0 0 0 0 0 
0 0 0 2.49961e-09 0 0 0 0 0 
0 7.84609e-10 0 0 0 0 0 0 2.91956e-09 
0 0 0 0 4.30877e-09 0 0 0 3.47719e-09 
0 0 2.18426e-09 0 3.79864e-09 0 0 0 0 
0 2.64621e-09 0 0 0 0 0 0 3.49028e-09 
8.77724e-07 0 0 7.35604e-07 0 1.37137e-09 1.66422e-09 0 0 
0 0 0 0 0 0 0 0 0 
0 0 0 0 0 0 0 0 0 
0 0 0 0 0 0 0 0 0 
0 0 0 0 0 0 0 0 0 
0 0 0 0 0 0 0 0 0 
0 0 0 3.68744e-09 7.14311e-07 0 9.0085e-09 0 0 
4.24215e-09 3.36014e-09 0 2.10614e-09 0 0 0 0 8.88716e-10 
0 0 0 0 0 0 0 0 0 
0 7.62078e-07 0 0 0 6.58934e-07 0 1.19739e-09 6.28342e-10 
0 8.41566e-10 0 0 1.78262e-09 0 0 0 0 
8.32091e-07 0 0 0 2.9974e-09 0 0 0 0 
0 0 0 0 1.78761e-10 0 0 0 0 
0 0 0 5.98954e-10 4.60908e-10 0 0 0 0 
0 0 0 0 0 0 0 0 0 
0 0 0 0 0 0 0 0 0 
0 0 0 0 0 0 0 0 0 
0 0 7.86726e-10 0 0 0 0 7.79123e-07 4.58366e-09 
0 0 0 6.54242e-07 0 0 1.64181e-09 4.25513e-10 0 
0 1.99926e-09 0 0 7.1262e-07 0 0 0 0 
0 0 1.01822e-08 0 0 0 4.31845e-09 0 1.46304e-09 
0 0 0 0 0 0 5.78061e-10 0 0 
0 0 1.15534e-09 0 7.4834e-07 7.06996e-09 0 0 0 
0 0 0 0 0 0 0 0 0 
0 0 0 0 0 0 0 0 0 
0 0 0 0 0 0 0 0 0 
0 0 0 0 0 0 0 0 0 
0 0 0 0 0 0 0 0 0 
0 0 0 0 0 0 0 0 5.49838e-09 
3.46355e-09 0 0 3.86525e-09 4.62428e-09 0 1.60749e-09 0 0 
0 0 0 0 0 0 0 1.00466e-09 8.3791e-09 
0 8.81044e-07 0 8.21398e-07 2.46962e-09 3.88035e-09 0 0 3.64341e-09 
0 0 0 0 0 0 0 0 0 
0 0 2.32036e-09 0 0 0 0 0 0 
5.74441e-10 0 0 0 0 0 0 0 0 
0 0 0 0 0 0 0 0 0 
0 0 0 0 0 0 0 0 0 
0 0 0 0 0 0 0 0 0 
0 0 0 0 0 0 6.44311e-10 0 0 
0 0 0 0 0 0 1.84397e-09 2.51497e-09 1.02359e-08 
7.33274e-07 0 0 1.39609e-09 0 0 0 1.25834e-09 0 
0 0 0 0 0 0 0 9.10543e-09 0 
0 8.59814e-07 0 0 0 0 0 0 0 
0 0 0 0 0 6.6752e-07 0 3.49997e-09 0 
0 1.64783e-09 0 0 4.19774e-09 0 0 0 0 
0 0 0 0 0 0 0 0 0 
0 0 6.41167e-10 0 0 0 0 0 0 
0 0 0 0 0 0 0 0 0 
0 0 0 0 0 0 0 0 0 
0 0 0 0 0 0 0 6.44199e-07 0 
0 0 0 0 0 0 0 0 0 
0 0 2.11617e-09 0 2.2062e-09 0 2.32617e-09 1.47129e-09 0 
0 0 0 8.33322e-10 0 0 0 0 0 
7.54908e-07 0 0 0 0 0 0 0 0 
0 0 0 1.34202e-09 0 0 5.13147e-09 0 3.06659e-09 
0 0 0 0 0 0 2.39103e-09 0 1.09802e-09 
1.27175e-09 0 0 0 0 0 0 0 0 
0 0 0 0 0 0 0 0 0 
5.7955e-10 0 0 0 0 0 0 0 2.30669e-12 
0 0 0 0 0 0 0 0 0 
0 0 0 0 0 0 2.39123e-09 2.03533e-09 0 
0 0 0 0 0 0 0 0 0 
0 3.09101e-09 0 0 0 0 0 0 0 
0 0 0 0 5.8196e-10 0 0 3.01821e-09 0 
0 0 0 0 0 0 5.27273e-10 1.02232e-09 0 
0 0 0 0 0 0 0 0 0 
4.59071e-09 0 0 8.46347e-07 0 8.42001e-07 9.07401e-09 0 7.27816e-10 
0 0 0 0 0 0 0 0 3.89636e-11 
0 0 0 0 3.59993e-09 0 0 0 0 
2.30682e-09 8.81852e-10 0 0 0 0 0 0 0 
0 0 0 0 0 0 0 0 0 
0 0 0 0 0 0 0 0 0 
0 0 0 0 1.48511e-09 3.06077e-09 0 0 0 
0 0 0 0 0 0 0 0 0 
0 0 0 0 1.97219e-10 0 0 0 0 
1.59061e-09 0 5.12794e-09 0 0 3.88713e-09 0 0 0 
0 0 0 0 6.93312e-10 0 0 0 0 
6.76092e-07 3.09922e-09 0 0 0 8.80444e-07 0 3.83179e-09 2.72449e-09 
0 0 2.54793e-10 0 0 0 0 0 0 
3.10866e-10 0 1.39896e-09 0 4.28163e-09 0 0 0 7.17261e-07 
2.07662e-09 0 0 0 0 0 0 0 0 
0 1.28837e-11 0 0 0 0 0 0 0 
0 0 0 0 0 0 1.29898e-10 0 0 
0 0 7.33883e-10 0 0 0 0 6.44156e-07 0 
0 1.36349e-09 0 0 0 0 0 0 0 
0 0 0 0 6.48316e-07 0 0 0 0 
0 0 0 0 9.07174e-07 8.93563e-07 0 0 0 
0 0 0 0 0 0 0 0 0 
2.65682e-09 8.80921e-09 0 0 0 1.43879e-09 0 0 1.77219e-09 
0 0 0 4.9039e-10 0 0 0 0 0 
1.56001e-09 0 0 0 0 1.21965e-08 7.0013e-07 0 0 
0 0 0 0 0 0 0 0 0 
0 0 0 0 0 0 0 0 0 
0 0 0 0 0 0 0 0 0 
0 0 0 0 0 0 0 1.55587e-09 1.62012e-09 
0 0 0 0 0 0 0 0 0 
1.74694e-10 0 0 0 2.91965e-09 0 0 2.40553e-09 0 
0 0 0 0 0 1.1359e-08 0 0 0 
0 0 0 0 0 0 0 0 0 
0 0 0 0 0 0 0 0 1.2004e-10 
0 0 0 0 0 0 0 0 0 
0 0 1.83936e-09 0 0 0 0 1.99349e-09 0 
4.97788e-09 0 7.11578e-07 0 0 0 0 0 0 
0 0 0 0 0 0 0 0 0 
0 0 0 0 0 0 0 0 0 
2.92225e-10 4.88461e-10 0 0 8.55871e-10 0 0 0 0 
1.17428e-09 0 0 0 0 0 0 0 0 
0 0 0 0 0 2.44993e-09 0 0 5.30551e-10 
0 0 0 0 1.00883e-09 0 0 0 3.45381e-09 
4.00647e-10 0 0 0 0 0 0 0 0 
0 0 0 0 0 0 1.71701e-09 0 2.93224e-09 
2.56279e-09 0 0 0 0 0 0 0 0 
0 0 0 0 0 0 6.87724e-07 1.04622e-09 1.46198e-09 
0 0 3.51343e-09 2.33499e-09 0 0 0 0 0 
0 0 0 0 0 0 0 0 0 
0 0 0 0 0 0 0 0 0 
0 0 0 0 0 0 0 0 0 
0 0 0 6.11193e-10 0 0 0 0 0 
0 0 0 9.18216e-10 0 0 0 2.0664e-09 1.41482e-09 
0 0 0 0 1.93516e-09 8.61031e-09 6.77697e-07 0 0 
1.43593e-09 0 1.0048e-09 0 0 0 2.68057e-11 0 0 
0 0 0 0 0 0 7.53831e-10 0 0 
0 0 0 0 0 0 3.92093e-09 3.13187e-09 0 
0 0 0 6.54453e-07 0 1.95985e-09 7.50315e-10 0 0 
3.5478e-09 0 0 0 0 2.49723e-09 0 0 0 
0 0 0 0 0 0 0 0 0 
0 0 0 0 0 0 0 0 0 
0 0 0 1.60666e-09 0 2.07318e-09 0 0 0 
1.17475e-09 0 0 0 0 0 0 0 0 
0 0 0 0 0 0 6.48258e-07 0 0 
0 0 0 0 0 0 0 0 3.42143e-09 
0 0 1.02525e-09 0 0 0 0 0 0 
0 0 0 0 0 0 0 0 0 
0 0 0 0 0 2.4838e-09 6.14913e-09 6.49388e-07 0 
0 0 0 0 8.30893e-09 3.79729e-09 0 0 0 
0 1.56125e-09 0 0 0 0 0 1.32928e-09 1.67452e-09 
0 5.42017e-10 0 0 0 0 0 0 0 
0 0 0 0 0 0 0 0 0 
0 0 0 0 0 8.54489e-10 6.44323e-07 4.46243e-09 3.51827e-09 
0 0 0 0 0 0 0 0 0 
0 0 0 0 0 1.08621e-09 1.74596e-09 0 0 
0 0 0 0 0 0 9.93696e-10 1.18505e-09 0 
2.71036e-09 0 0 0 0 0 0 6.77652e-07 0 
0 6.95846e-10 0 0 0 0 0 0 0 
0 0 0 0 4.29557e-09 0 0 2.92354e-09 0 
0 0 0 7.55458e-10 0 0 0 0 0 
0 0 0 3.64831e-09 0 0 0 6.60513e-07 0 
0 0 5.75384e-10 0 0 0 0 0 0 
0 0 0 0 0 0 0 0 0 
0 0 0 0 8.69319e-10 0 0 0 2.5061e-09 
0 0 0 0 0 0 0 0 0 
0 7.34709e-10 0 0 0 0 0 0 5.8145e-10 
0 9.0432e-10 0 0 0 0 0 0 3.75403e-10 
0 0 0 0 3.11776e-10 0 2.37194e-09 0 0 
0 0 0 0 0 0 0 0 0 
0 0 0 0 0 6.48646e-07 4.35455e-09 4.45527e-09 0 
0 0 0 0 0 1.03505e-09 0 0 0 
3.48631e-09 0 6.57214e-07 3.19607e-09 0 1.9041e-09 0 1.83208e-09 0 
0 0 0 0 0 0 0 0 0 
0 0 0 0 0 0 0 0 0 
0 0 0 0 0 0 0 0 0 
1.46112e-09 5.93217e-10 0 0 0 0 0 0 0 
0 0 0 0 4.94374e-10 0 0 0 0 
0 0 1.04369e-09 0 0 0 0 8.79677e-10 0 
0 0 0 1.47092e-09 0 0 0 1.09931e-09 3.82319e-09 
0 0 0 9.85944e-07 9.13977e-07 0 0 5.71545e-10 0 
0 0 0 0 0 0 0 0 0 
1.1823e-09 8.84232e-10 0 0 0 0 7.35993e-10 0 1.57909e-11 
0 0 0 0 0 0 0 0 0 
0 0 0 0 0 0 0 0 0 
0 0 0 0 0 0 0 0 0 
0 0 0 0 0 0 0 0 0 
1.33682e-09 0 0 0 0 0 0 0 0 
0 0 0 0 0 0 1.35338e-09 9.82213e-10 0 
0 0 0 0 0 0 0 4.32186e-10 0 
0 0 0 0 0 0 0 0 0 
0 0 0 8.31346e-07 0 0 6.79676e-09 0 0 
5.26308e-10 5.35471e-10 0 0 0 0 0 8.44523e-10 1.0276e-09 
0 0 0 0 0 0 0 0 0 
2.95468e-09 7.38632e-10 1.92997e-09 0 0 0 1.12365e-09 0 0 
0 0 1.88627e-09 0 0 0 0 0 0 
0 0 0 0 0 0 0 0 0 
0 0 0 0 0 0 0 0 5.79884e-10 
0 0 0 0 0 0 0 0 0 
0 0 0 0 0 0 1.90176e-09 0 0 
0 0 6.12444e-10 0 0 0 4.22369e-09 6.4729e-07 2.2528e-11 
0 0 0 0 1.68618e-09 0 0 0 0 
6.70695e-07 0 3.53067e-09 0 0 0 0 0 0 
0 0 0 0 0 0 0 0 0 
0 0 0 0 0 0 0 0 4.71879e-09 
6.66144e-07 0 0 1.4031e-09 1.25388e-09 0 0 0 0 
1.91798e-09 6.56894e-07 0 0 0 0 0 0 0 
0 0 0 0 0 0 0 0 0 
0 0 0 0 0 0 0 0 2.50892e-10 
0 0 0 5.90371e-09 0 0 0 0 0 
0 0 0 0 0 5.8437e-09 6.78779e-07 0 0 
0 0 0 1.14097e-09 0 0 0 3.40637e-09 0 
2.7008e-09 0 0 0 0 0 0 1.83682e-09 0 
0 6.12182e-09 0 0 0 0 0 3.53005e-09 4.62514e-10 
2.68065e-11 6.11076e-10 0 0 0 0 0 0 0 
0 0 0 0 0 0 0 0 0 
0 0 0 2.70754e-09 0 0 0 0 2.04968e-09 
0 1.1101e-08 0 0 0 0 0 0 0 
0 0 0 0 0 0 0 0 0 
0 0 0 0 0 0 0 0 0 
0 0 0 6.44082e-07 0 0 0 0 0 
0 0 0 0 6.79572e-07 0 0 0 5.58692e-09 
0 0 0 5.26495e-10 0 0 0 3.53989e-09 0 
1.93742e-09 2.11113e-09 0 0 0 0 1.1651e-09 1.18626e-09 6.56484e-07 
4.73712e-09 3.37836e-09 0 0 0 0 0 1.93382e-09 0 
0 0 0 0 0 0 8.88281e-10 0 0 
0 0 0 0 0 0 0 0 1.67917e-09 
0 0 0 0 0 2.2146e-09 0 0 5.22944e-09 
0 0 2.21904e-09 0 0 0 0 0 0 
0 0 0 0 0 0 0 0 0 
0 0 0 0 0 0 0 0 0 
0 0 0 0 1.95061e-09 0 0 0 1.14731e-09 
0 0 0 0 0 0 0 0 0 
0 1.99962e-09 0 1.6269e-09 0 0 3.7826e-09 0 0 
2.22253e-09 0 0 8.56526e-10 0 0 0 0 0 
1.09771e-09 2.44664e-09 1.14548e-09 0 0 0 0 0 0 
0 0 1.48922e-09 6.6802e-07 4.74074e-09 0 0 7.09073e-10 0 
0 0 0 0 0 0 0 0 0 
0 0 0 0 0 1.52791e-09 0 2.39289e-09 0 
6.52418e-07 0 0 0 2.11536e-09 1.26062e-09 0 0 0 
0 0 0 0 0 0 0 0 0 
0 0 0 0 0 0 0 0 0 
0 0 0 8.78531e-10 0 0 0 0 1.03095e-09 
0 0 0 2.78821e-09 0 0 0 0 1.8587e-09 
2.18428e-09 2.4731e-09 7.38033e-07 3.53734e-09 0 0 0 6.63279e-07 2.23916e-09 
0 0 0 6.20247e-10 0 2.72362e-09 0 0 0 
8.93292e-10 2.00841e-09 0 2.33385e-10 0 0 0 0 0 
0 0 0 0 0 0 0 0 8.32043e-10 
0 0 0 0 0 0 0 0 0 
0 0 0 9.82944e-07 1.08418e-06 0 0 0 0 
0 0 0 0 0 0 0 0 0 
0 0 0 0 0 0 0 0 0 
0 0 0 0 0 0 0 0 0 
0 0 0 0 0 0 0 0 0 
0 7.17682e-10 0 0 0 7.08052e-07 2.07078e-09 0 1.84908e-09 
0 0 4.09951e-09 1.10469e-09 0 0 0 0 2.21486e-09 
2.15077e-09 0 0 0 0 6.72003e-07 1.94059e-09 1.17112e-09 1.61363e-09 
0 0 0 0 0 0 0 0 0 
6.13761e-10 0 0 0 0 0 4.01102e-09 0 5.97984e-10 
0 0 0 0 0 0 0 0 0 
0 0 0 0 0 9.4932e-07 0 0 4.03073e-09 
1.74246e-09 0 0 0 0 5.95622e-10 0 0 7.66653e-07 
0 0 1.52202e-09 0 0 0 0 0 0 
0 0 0 0 0 0 0 0 0 
0 0 0 0 0 0 0 0 0 
0 0 0 4.12474e-11 0 0 1.53418e-09 0 1.07939e-09 
0 0 0 0 7.43634e-07 0 2.19508e-09 0 3.05905e-09 
0 0 0 3.96091e-09 0 0 0 0 0 
2.12339e-09 0 0 0 0 0 0 0 0 
0 0 0 0 0 0 0 6.80526e-07 0 
0 1.77744e-09 2.40748e-10 0 0 0 0 0 0 
0 0 0 1.21923e-09 0 0 0 0 0 
2.37166e-09 3.63886e-09 0 0 0 0 0 0 0 
0 7.70094e-07 0 0 0 0 0 0 0 
0 0 0 0 0 0 0 0 0 
0 0 0 0 0 0 0 0 0 
0 0 0 0 0 6.47624e-09 6.95907e-07 3.30256e-09 0 
4.10886e-09 0 0 1.86001e-09 0 0 0 0 1.67281e-09 
0 0 3.69695e-09 6.64487e-07 9.38215e-10 1.04058e-09 0 1.65184e-09 0 
0 0 1.38223e-09 0 1.82757e-09 0 1.01514e-09 0 0 
0 0 2.3288e-09 7.6327e-07 8.25777e-09 0 0 0 0 
1.95621e-09 0 7.73983e-09 0 7.56105e-10 0 0 9.69698e-10 1.11469e-09 
0 0 1.36836e-09 0 0 0 0 4.28174e-09 1.17795e-09 
0 6.68433e-07 3.90956e-09 1.95004e-09 0 1.05799e-09 0 0 0 
0 0 0 3.20173e-09 0 0 0 0 0 
0 0 0 0 0 0 0 0 0 
0 0 0 0 0 0 0 0 0 
0 0 0 0 0 0 3.09884e-09 0 0 
0 0 0 3.97972e-10 0 0 5.47134e-10 0 2.45192e-09 
0 0 0 0 0 1.02059e-08 0 1.78155e-09 0 
6.71934e-07 0 2.35964e-09 0 0 3.03497e-09 0 0 0 
0 0 0 0 0 7.66024e-07 0 1.56617e-09 0 
0 0 0 4.43648e-09 0 0 2.65953e-09 1.42537e-09 0 
0 4.07427e-10 0 0 0 0 0 0 0 
0 2.81593e-09 0 1.38405e-09 0 0 0 0 0 
0 0 0 0 2.75457e-09 0 0 0 0 
0 0 0 0 0 0 0 0 0 
0 0 0 0 0 0 0 0 0 
0 0 0 0 0 0 0 0 0 
0 1.52553e-09 0 0 0 0 0 0 6.74443e-07 
0 0 1.97622e-09 2.18952e-09 1.15073e-09 0 0 3.93146e-09 0 
0 0 0 0 0 0 6.62055e-07 0 0 
0 0 0 1.45827e-09 0 0 0 0 0 
0 0 0 0 0 9.63777e-07 1.70661e-09 0 0 
0 0 3.02645e-09 0 6.55588e-07 0 0 0 0 
0 1.82071e-09 2.83431e-09 0 0 0 0 0 0 
0 0 4.75597e-09 0 0 0 0 9.27709e-10 0 
0 0 0 0 0 0 0 0 0 
0 0 0 0 0 0 0 0 0 
0 0 0 0 0 0 0 0 0 
0 0 0 0 0 0 0 0 0 
0 0 0 0 0 0 0 0 0 
0 7.28436e-10 0 1.25069e-09 0 0 0 0 0 
1.7265e-09 9.61289e-10 0 0 0 0 1.99236e-09 0 0 
0 0 0 0 0 0 0 0 0 
0 0 0 0 0 4.1605e-09 2.68555e-09 0 0 
0 0 0 0 0 0 1.0141e-09 0 0 
3.35259e-09 0 0 5.18793e-09 8.2337e-07 0 0 0 0 
0 0 0 0 0 0 0 0 0 
0 0 0 0 0 0 0 0 0 
0 0 0 0 0 0 0 0 0 
0 9.71032e-10 0 0 0 0 0 3.89713e-10 0 
0 0 0 2.38602e-09 0 0 0 0 0 
0 0 1.71041e-09 0 0 3.41187e-09 2.66788e-09 0 2.52018e-09 
0 1.76748e-09 1.41118e-09 0 0 0 0 0 0 
0 0 0 0 0 0 0 1.00373e-06 9.72175e-09 
0 0 0 0 2.07125e-09 0 0 0 2.63158e-09 
0 5.99034e-10 0 2.57231e-09 0 0 0 0 0 
0 0 3.71556e-09 0 9.82921e-07 0 0 0 0 
0 0 0 0 0 0 0 0 0 
0 0 0 0 0 0 0 0 0 
0 0 0 0 0 0 0 0 1.76186e-09 
6.72537e-09 0 1.38239e-09 0 0 0 0 0 6.51345e-07 
4.29336e-09 0 0 1.78729e-09 0 0 2.16992e-09 0 5.13067e-10 
0 0 0 0 0 1.13513e-09 0 6.7214e-07 0 
0 0 0 0 0 0 0 0 0 
7.65523e-10 0 0 0 2.72854e-09 0 0 0 9.42578e-07 
0 0 0 0 7.48279e-07 0 0 5.93264e-11 0 
0 0 0 0 0 0 0 1.6532e-09 0 
0 6.77748e-07 1.43264e-09 0 0 9.19348e-07 0 0 0 
1.05904e-09 0 0 0 0 0 0 0 0 
0 0 0 0 0 0 0 0 0 
0 0 0 0 0 0 0 0 0 
0 0 0 6.50177e-10 1.15232e-10 0 1.31517e-09 0 0 
2.87814e-09 2.00738e-09 0 1.31922e-09 0 0 0 0 0 
0 0 0 0 0 0 0 0 8.25349e-10 
0 1.31233e-09 2.59394e-09 0 0 2.38443e-09 0 0 0 
1.17689e-09 0 0 2.06227e-09 0 1.08724e-09 1.43865e-09 0 0 
6.32906e-09 0 0 9.49843e-07 0 1.43773e-09 0 3.74544e-09 0 
0 4.46999e-09 0 1.88271e-09 3.56963e-09 0 6.65664e-07 0 0 
1.66599e-09 0 3.95479e-09 1.58953e-09 3.73911e-09 0 0 0 0 
0 0 5.47158e-10 0 0 0 0 0 0 
0 0 0 0 0 0 0 0 0 
0 0 0 0 0 0 0 0 0 
0 5.46345e-09 6.77223e-07 5.54886e-09 0 5.66175e-10 0 0 0 
0 0 3.1898e-09 0 0 0 6.46511e-10 1.13769e-09 6.52278e-07 
0 1.26706e-09 0 0 0 0 0 0 0 
0 0 7.01462e-09 7.3852e-07 0 3.55272e-09 0 1.71504e-09 0 
0 1.75081e-09 0 1.61694e-09 0 0 0 0 0 
0 0 1.42325e-09 0 9.14256e-07 0 0 4.19596e-09 0 
6.97427e-07 0 0 6.866e-07 4.7377e-09 0 0 4.65074e-09 2.9157e-09 
0 2.19821e-09 3.77074e-09 0 0 0 0 0 0 
0 6.92632e-10 0 0 0 0 0 0 0 
0 0 0 0 0 0 0 0 0 
0 0 0 0 0 0 3.1407e-10 0 0 
0 0 0 0 0 0 0 0 0 
0 0 0 0 0 0 0 0 0 
9.54211e-10 0 0 0 4.60051e-10 0 0 0 0 
1.04678e-09 0 0 0 0 0 7.66918e-07 0 6.32874e-10 
0 0 0 0 0 0 0 0 0 
0 0 0 0 0 0 0 5.89654e-10 0 
0 0 0 0 4.08664e-09 0 6.12755e-09 0 0 
0 0 0 0 0 5.22207e-09 4.65381e-09 0 0 
0 0 0 0 0 0 0 0 0 
0 0 0 0 0 0 0 0 0 
0 0 0 0 0 0 0 0 0 
0 0 0 0 0 3.16251e-09 0 7.90562e-10 0 
0 6.05268e-10 2.85596e-09 9.95676e-10 0 0 0 0 9.05928e-10 
1.18793e-10 0 0 0 0 0 0 0 0 
0 0 2.40577e-09 1.16815e-09 0 0 0 1.2046e-09 2.81081e-09 
3.06586e-09 0 0 0 6.80005e-07 0 0 0 0 
0 0 1.45722e-09 0 0 0 0 0 0 
0 0 7.53075e-10 0 0 0 0 6.19889e-09 0 
1.05242e-09 0 4.25874e-09 0 0 7.79134e-07 0 0 4.2005e-10 
0 0 0 0 0 0 0 0 0 
0 0 0 0 0 0 0 0 0 
0 0 0 0 0 0 0 0 0 
1.24429e-09 0 0 8.75989e-07 8.93342e-07 0 0 2.08109e-10 0 
0 0 0 6.09437e-09 0 0 0 0 0 
2.22047e-09 0 0 1.79969e-09 0 0 0 0 0 
0 0 0 0 0 0 0 8.782e-07 1.20705e-09 
0 0 0 0 4.74782e-09 1.67803e-09 0 0 6.75089e-07 
0 1.23264e-09 0 0 6.60917e-07 0 0 0 0 
0 0 0 2.34384e-09 1.57445e-09 0 3.41255e-09 0 0 
0 0 6.8441e-07 0 0 0 0 7.67355e-07 0 
0 0 0 0 0 0 0 0 0 
0 0 0 0 0 0 0 0 0 
0 0 0 0 0 0 0 0 0 
0 1.5777e-09 0 0 0 0 5.74363e-09 0 0 
1.95965e-09 1.50373e-09 0 0 0 6.4467e-07 7.55834e-09 2.82641e-09 8.57457e-10 
0 6.08364e-10 0 1.74333e-09 6.51342e-07 2.84048e-09 1.90842e-09 0 0 
5.78238e-10 0 3.59131e-10 0 0 0 0 0 0 
0 0 0 0 4.90391e-09 0 0 0 1.0087e-09 
0 5.28851e-09 0 0 0 0 0 0 0 
1.76971e-09 0 6.59397e-07 0 0 0 2.45312e-09 4.92885e-10 0 
6.8386e-07 0 0 2.7753e-09 0 1.23125e-09 0 0 1.31284e-12 
0 0 0 0 0 0 0 0 0 
0 0 0 0 0 0 0 0 0 
0 0 0 0 0 0 0 0 0 
0 0 8.37811e-10 1.00609e-09 1.91853e-09 0 0 0 0 
0 0 1.38734e-09 4.08063e-10 0 0 0 0 1.74925e-09 
0 0 0 0 0 3.64931e-09 0 0 0 
0 8.49353e-10 0 0 0 0 0 9.92801e-07 1.15633e-06 
1.04976e-06 0 0 1.54111e-09 7.74625e-07 0 0 3.17777e-09 4.18544e-09 
0 0 3.12447e-09 0 0 0 0 0 0 
0 0 2.08973e-09 2.92249e-09 0 6.12475e-10 3.18095e-09 1.16234e-09 0 
1.36243e-09 0 0 0 0 7.10121e-10 0 1.63068e-09 7.61303e-10 
3.33282e-09 0 1.07363e-09 0 0 0 0 0 0 
0 0 0 0 0 0 0 0 0 
0 0 0 0 0 0 0 0 0 
0 0 0 0 0 5.34488e-09 0 0 6.94024e-09 
8.75162e-07 0 0 1.31434e-09 0 0 0 0 0 
0 0 0 0 0 9.22711e-10 1.39914e-09 0 0 
0 0 0 0 0 0 0 0 0 
1.88036e-09 0 0 0 0 0 5.53897e-09 7.34989e-07 0 
0 3.73681e-09 0 0 0 0 0 0 0 
0 4.60142e-10 0 0 0 0 0 0 6.62981e-07 
1.50776e-09 0 0 0 2.84677e-09 1.21292e-09 0 0 0 
0 0 9.56978e-11 0 0 0 0 0 0 
0 0 0 0 0 0 0 0 0 
0 0 0 0 0 0 0 0 0 
0 0 0 0 0 0 0 0 4.09055e-09 
0 8.64954e-07 0 0 0 0 0 1.15806e-09 0 
8.67377e-10 0 0 0 0 0 0 0 1.05956e-09 
0 0 0 0 0 0 0 0 0 
0 2.04298e-09 0 2.10969e-09 0 7.40952e-07 0 0 3.84613e-09 
0 0 0 0 3.81721e-10 0 0 0 0 
0 0 0 0 0 0 0 0 0 
0 0 0 0 0 2.08705e-09 0 0 0 
0 2.72304e-10 0 0 0 0 0 0 0 
0 0 0 0 0 0 0 0 0 
0 0 0 0 0 0 0 0 0 
0 0 0 0 1.15344e-09 0 1.13891e-09 0 0 
0 0 1.77872e-08 0 2.51867e-09 0 0 0 0 
0 0 0 0 0 0 0 0 0 
0 0 0 1.79617e-09 0 0 0 2.29281e-09 0 
4.46615e-09 7.09991e-07 2.94981e-09 0 0 0 6.99604e-09 3.58348e-09 5.29285e-09 
0 0 0 0 8.65284e-07 0 0 0 0 
0 0 0 0 0 0 0 3.23661e-10 0 
1.10633e-09 0 1.61098e-09 0 0 1.89492e-09 2.29352e-09 0 1.09725e-09 
1.07917e-09 3.55535e-10 0 0 0 0 0 0 0 
0 0 0 0 0 0 0 0 0 
0 0 0 0 0 0 0 0 0 
0 0 0 0 0 0 0 0 0 
0 0 1.67798e-09 0 0 0 7.56829e-10 0 0 
0 0 0 0 0 0 0 0 0 
0 0 0 0 0 2.95139e-09 6.46906e-07 5.40683e-09 1.26632e-09 
0 3.94981e-09 0 0 0 1.87633e-09 0 2.2809e-09 0 
0 0 0 0 2.33124e-09 8.61397e-07 0 3.46848e-09 1.61737e-09 
0 0 0 0 0 0 0 0 0 
0 0 0 0 3.7776e-10 6.69774e-10 0 0 2.44572e-09 
0 0 0 0 0 0 0 0 0 
9.76308e-12 0 0 0 0 0 0 0 0 
0 0 0 0 0 0 0 0 0 
0 0 0 0 0 0 0 4.11788e-09 0 
0 1.41972e-09 0 1.09809e-09 0 0 0 0 1.32138e-09 
0 0 0 0 0 0 0 0 0 
0 0 0 0 0 0 0 3.23517e-09 0 
0 0 0 2.19771e-09 0 0 9.16305e-11 0 0 
0 0 0 0 0 0 0 0 0 
0 0 0 0 0 0 0 0 0 
0 0 0 0 0 0 1.701e-09 0 6.52641e-07 
0 1.96127e-09 0 0 0 0 0 0 0 
0 0 0 0 0 0 0 0 0 
0 0 0 0 0 0 0 0 0 
0 0 0 0 0 0 0 0 6.44309e-07 
0 0 7.49204e-10 0 2.23475e-09 3.35527e-09 0 4.57227e-10 8.85314e-10 
9.61837e-10 0 0 0 0 0 0 0 0 
0 0 0 0 0 0 0 0 6.69352e-10 
0 0 0 0 7.47834e-10 0 0 5.39629e-10 0 
0 0 0 0 0 1.36346e-09 0 5.13844e-09 0 
1.8087e-09 0 0 0 4.1076e-09 0 5.7556e-10 8.73731e-10 0 
0 0 0 0 0 0 0 0 3.5659e-09 
2.04977e-09 0 0 0 0 1.42547e-09 0 0 0 
0 0 0 0 0 0 0 0 0 
0 0 0 0 0 0 0 0 0 
0 0 0 0 0 0 0 0 1.91731e-09 
1.38264e-09 0 3.0333e-10 0 0 0 1.06609e-09 0 0 
0 0 0 0 0 0 0 0 0 
0 0 0 0 1.11502e-09 0 0 0 9.90088e-10 
0 0 0 0 0 7.07372e-10 0 0 0 
0 0 0 0 0 0 0 0 0 
0 0 2.41956e-09 0 1.35638e-09 6.82814e-07 0 2.98909e-09 0 
0 0 0 0 0 0 0 0 0 
0 0 0 0 0 0 0 1.44924e-09 0 
0 0 0 0 0 0 0 0 0 
0 0 0 0 0 0 0 0 0 
0 0 0 0 0 0 0 0 0 
0 2.22202e-09 1.6294e-09 1.1638e-09 0 0 0 3.15487e-09 6.59543e-07 
4.66656e-09 0 0 0 0 0 0 0 0 
4.99363e-10 1.72432e-10 0 0 4.31831e-10 1.03609e-09 0 0 0 
0 0 0 0 0 0 0 4.99509e-10 0 
0 0 0 0 0 0 0 0 1.34192e-09 
0 0 2.57389e-09 7.0315e-10 0 0 0 0 3.21276e-09 
0 0 0 0 0 0 0 0 0 
1.19311e-09 0 0 0 0 2.04123e-09 0 0 0 
1.26848e-10 0 0 0 0 0 0 0 0 
0 0 0 0 0 0 0 0 0 
0 0 0 0 0 0 0 0 0 
0 6.24564e-10 0 0 9.13032e-10 0 0 0 0 
0 0 4.25023e-09 0 6.73236e-07 0 1.97002e-11 1.43045e-09 0 
0 0 0 0 0 3.00715e-10 0 8.43691e-10 0 
0 0 0 0 9.16665e-10 0 0 2.59497e-09 0 
0 0 0 0 0 0 0 0 0 
0 6.5941e-10 0 0 0 6.7917e-07 6.36877e-09 0 0 
4.08934e-09 0 0 0 0 0 0 0 0 
0 7.52802e-10 2.08328e-09 0 6.52654e-07 4.18778e-09 0 0 2.63768e-09 
0 1.74306e-09 0 0 0 0 0 0 0 
0 0 0 0 0 0 0 0 0 
0 0 0 0 0 0 0 0 0 
0 0 0 0 0 0 0 0 0 
0 0 0 0 0 0 0 0 0 
0 0 0 0 3.77914e-09 0 0 2.53477e-09 0 
0 0 2.82855e-09 0 0 0 2.70341e-09 6.45382e-07 0 
4.48308e-09 0 0 0 0 0 0 0 0 
6.47127e-07 4.46756e-09 0 1.34093e-09 0 0 0 0 0 
1.48298e-08 6.631e-07 0 2.18314e-09 0 0 0 0 0 
0 0 1.06675e-09 0 0 0 0 0 0 
0 0 8.56583e-07 0 0 0 0 0 0 
0 0 0 0 0 0 0 0 0 
0 0 0 0 0 0 0 0 0 
0 0 0 0 0 0 0 0 0 
0 0 0 0 0 0 4.89461e-09 0 0 
1.34501e-09 2.16863e-10 0 0 7.55693e-10 0 6.70937e-07 0 3.58421e-09 
0 0 0 0 0 0 2.30391e-09 5.22578e-10 0 
0 0 5.01101e-10 0 0 0 0 0 0 
0 0 1.31553e-09 0 0 0 3.31559e-09 0 0 
0 0 0 2.71588e-09 0 0 0 0 0 
0 0 0 0 0 0 0 0 8.45758e-10 
0 2.73968e-09 0 8.56812e-07 5.18545e-09 0 0 0 0 
0 0 0 0 0 0 0 0 0 
0 0 0 0 0 0 0 0 0 
0 0 0 0 0 0 0 0 1.17722e-09 
0 1.9256e-09 0 0 0 7.71677e-09 6.95479e-07 2.80535e-09 2.82519e-09 
9.21828e-10 2.6557e-09 0 0 0 0 0 0 0 
0 0 0 8.14091e-07 0 1.21793e-09 0 1.88238e-09 0 
0 0 1.7238e-10 0 0 0 0 0 0 
2.24546e-09 7.30813e-12 0 0 0 0 0 0 0 
7.21249e-10 0 0 0 0 0 9.19051e-11 0 0 
0 0 0 0 0 0 1.89718e-09 0 0 
0 0 0 0 0 0 1.17631e-09 0 3.48824e-10 
0 0 0 0 0 0 0 0 0 
0 0 0 0 0 0 0 0 0 