# vtk DataFile Version 5.1
vtk output
ASCII
DATASET STRUCTURED_POINTS
DIMENSIONS 100 100 1
SPACING 1 1 1
ORIGIN 0 0 0
POINT_DATA 10000
FIELD FieldData 6
feature_1 1 10000 float
0 0 0 0 0 0 0 0 0 
0 0 0 0 0 0 0 0 0 
0 0 0 0 0 0 0 0 0 
0 0 0 0 0 0 0 0 0 
0 0 0 0 0 0 0 0 0 
0 0 0 0 0 0 0 0 0 
0 0 0 0 0 0 0 0 0 
0 0 0 0 0 0 0 0 0 
0 0 0 0 0 0 0 0 0 
0 0 0 0 0 0 0 0 0 
0 0 0 0 0 0 0 0 0 
0 0 0 0 0 0 0 0 0 
0 0 0 0 0 0 0 0 0 
0 0 0 0 0 0 0 0 0 
0 0 0 0 0 0 0 0 0 
0 0 0 0 0 0 0 0 0 
0 0 0 0 0 0 0 0 0 
0 0 0 0 0 0 0 0 0 
0 0 0 0 0 0 0 0 0 
0 0 0 0 0 0 0 0 0 
0 0 0 0 0 0 0 0 0 
0 0 0 0 0 0 0 0 0 
0 0 0 0 0 0 0 0 0 
0 0 0 0 0 0 0 0 0 
0 0 0 0 0 0 0 0 0 
0 0 0 0 0 0 0 0 0 
0 0 0 0 0 0 0 0 0 
0 0 0 0 0 0 0 0 0 
0 0 0 0 0 0 0 0 0 
0 0 0 0 0 0 0 0 0 
0 0 0 0 0 0 0 0 0 
0 0 0 0 0 0 0 0 0 
0 0 0 0 0 0 0 0 0 
0 0 0 0 0 0 0 0 0 
0 0 0 0 0 0 0 0 0 
0 0 0 0 0 0 0 0 0 
0 0 0 0 0 0 0 0 0 
0 0 0 0 0 0 0 0 0 
0 0 0 0 0 0 0 0 0 
0 0 0 0 0 0 0 0 0 
0 0 0 0 0 0 0 0 0 
0 0 0 0 0 0 0 0 0 
0 0 0 0 0 0 0 0 0 
0 0 0 0 0 0 0 0 0 
0 0 0 0 0 0 0 0 0 
0 0 0 0 0 0 0 0 0 
0 0 0 0 0 0 0 0 0 
0 0 0 0 0 0 0 0 0 
0 0 0 0 0 0 0 0 0 
0 0 0 0 0 0 0 0 0 
0 0 0 0 0 0 0 0 0 
0 0 0 0 0 0 0 0 0 
0 0 0 0 0 0 0 0 0 
0 0 0 0 0 0 0 0 0 
0 0 0 0 0 0 0 0 0 
0 0 0 0 0 0 0 0 0 
0 0 0 0 0 0 0 0 0 
0 0 0 0 0 0 0 0 0 
0 0 0 0 0 0 0 0 0 
0 0 0 0 0 0 0 0 0 
0 0 0 0 0 0 0 0 0 
0 0 0 0 0 0 0 0 0 
0 0 0 0 0 0 0 0 0 
0 0 0 0 0 0 0 0 0 
0 0 0 0 0 0 0 0 0 
0 0 0 0 0 0 0 0 0 
0 0 0 0 0 0 0 0 0 
0 0 0 0 0 0 0 0 0 
0 0 0 0 0 0 0 0 0 
0 0 0 0 0 0 0 0 0 
0 0 0 0 0 0 0 0 0 
0 0 0 0 0 0 0 0 0 
0 0 0 0 0 0 0 0 0 
0 0 0 0 0 0 0 0 0 
0 0 0 0 0 0 0 0 0 
0 0 0 0 0 0 0 0 0 
0 0 0 0 0 0 0 0 0 
0 0 0 0 0 0 0 0 0 
0 0 0 0 0 0 0 0 0 
0 0 0 0 0 0 0 0 0 
0 0 0 0 0 0 0 0 0 
0 0 0 0 0 0 0 0 0 
0 0 0 0 0 0 0 0 0 
0 0 0 0 0 0 0 0 0 
0 0 0 0 0 0 0 0 0 
0 0 0 0 0 0 0 0 0 
0 0 0 0 0 0 0 0 0 
0 0 0 0 0 0 0 0 0 
0 0 0 0 0 0 0 0 0 
0 0 0 0 0 0 0 0 0 
0 0 0 0 0 0 0 0 0 
0 0 0 0 0 0 0 0 0 
0 0 0 0 0 0 0 0 0 
0 0 0 0 0 0 0 0 0 
0 0 0 0 0 0 0 0 0 
0 0 0 0 0 0 0 0 0 
0 0 0 0 0 0 0 0 0 
0 0 0 0 0 0 0 0 0 
0 0 0 0 0 0 0 0 0 
0 0 0 0 0 0 0 0 0 
0 0 0 0 0 0 0 0 0 
0 0 0 0 0 0 0 0 0 
0 0 0 0 0 0 0 0 0 
0 4.32174e-11 0 0 0 0 0 0 0 
0 0 0 0 0 0 0 6.58781e-10 0 
0 0 0 0 0 0 0 0 0 
0 0 0 0 0 0 0 0 0 
0 0 0 0 0 0 0 0 0 
0 0 0 0 0 0 0 0 0 
0 0 0 0 0 0 0 0 0 
0 0 0 0 0 0 0 0 0 
0 0 0 0 0 0 0 0 0 
0 0 0 0 0 0 0 0 0 
0 0 0 0 0 0 0 0 0 
0 0 0 0 0 0 0 0 0 
0 0 0 0 0 0 0 0 0 
0 1.7259e-09 0 0 0 0 0 0 0 
0 0 0 0 0 0 0 2.37274e-09 0 
0 0 0 0 0 0 0 0 0 
0 0 0 0 0 5.22422e-10 0 0 0 
0 0 0 0 0 0 0 0 0 
0 0 0 0 0 0 0 0 0 
0 0 0 0 0 0 0 0 0 
0 0 0 0 0 0 0 0 0 
0 0 0 0 0 0 0 0 0 
0 0 0 0 0 0 0 0 0 
0 0 0 0 0 0 0 0 1.65864e-09 
0 0 0 0 0 0 0 0 0 
0 0 0 0 0 0 0 0 0 
0 0 0 0 0 0 0 0 0 
0 0 0 0 4.51073e-10 0 0 0 0 
0 0 0 0 0 0 0 0 0 
0 0 0 0 0 0 0 0 0 
0 0 0 0 0 0 0 0 0 
0 0 0 0 0 0 0 0 0 
0 0 0 0 0 0 0 0 0 
0 0 0 0 0 0 0 0 0 
0 0 0 0 0 0 0 0 0 
0 0 0 7.84782e-07 6.75311e-09 2.15945e-09 0 0 0 
0 0 0 0 0 0 0 1.31313e-09 6.40536e-07 
1.38766e-09 0 0 0 0 0 0 0 0 
0 0 0 0 0 0 0 5.36097e-10 0 
0 0 0 0 0 0 0 0 0 
0 0 0 0 0 0 0 0 0 
0 0 0 0 0 0 0 0 0 
0 0 0 0 0 0 0 0 0 
0 0 0 0 0 0 0 0 0 
0 0 0 0 0 0 5.39087e-10 0 0 
0 0 0 1.37939e-09 1.55985e-10 0 0 0 0 
3.1821e-09 0 0 8.24809e-07 0 6.51734e-09 0 0 0 
8.0387e-10 0 0 0 0 6.19727e-10 0 0 0 
0 0 1.86989e-09 1.15591e-09 0 0 0 0 0 
0 0 0 0 0 0 0 0 0 
0 1.5149e-09 0 0 0 0 0 0 0 
0 0 0 0 0 0 0 0 0 
0 0 0 0 0 0 0 0 0 
0 0 0 0 0 0 0 0 0 
0 0 0 0 0 0 0 0 0 
0 0 0 0 4.44069e-09 6.42472e-07 0 1.52824e-09 0 
0 0 0 1.48785e-09 0 8.10994e-09 0 0 1.19144e-09 
0 0 0 0 0 0 0 0 0 
0 0 0 0 0 0 0 0 6.4209e-10 
0 0 0 0 0 0 0 0 0 
0 0 0 0 0 0 1.53187e-09 0 0 
6.41955e-07 1.43139e-09 0 0 0 0 0 0 0 
0 0 0 0 0 0 0 0 0 
0 0 0 0 0 0 0 0 0 
0 0 0 0 0 0 0 0 0 
0 0 0 0 0 0 0 0 0 
0 0 0 0 0 0 0 0 0 
8.70377e-10 0 0 0 0 3.88819e-09 6.42176e-07 4.81825e-09 2.74276e-09 
0 0 0 0 0 0 7.89036e-07 0 0 
6.80525e-10 0 0 0 0 0 0 0 0 
0 0 1.30522e-09 0 0 0 0 0 0 
0 0 0 0 9.70386e-10 0 0 0 0 
0 3.85462e-10 0 0 0 0 0 0 0 
0 0 0 0 0 0 0 0 0 
0 0 0 0 0 0 0 0 0 
0 0 0 0 0 0 0 0 0 
0 0 0 0 0 0 0 0 0 
0 0 0 0 0 0 1.81776e-09 0 0 
0 0 0 0 0 0 2.34669e-09 0 0 
0 0 0 0 0 7.34172e-07 1.24116e-08 0 0 
0 0 6.83606e-07 0 0 1.17593e-09 0 0 0 
0 0 0 0 1.52684e-09 0 1.75025e-09 0 1.97497e-09 
0 0 0 7.71859e-10 0 0 0 0 0 
0 0 0 0 0 0 0 0 0 
8.21566e-11 0 0 0 0 0 0 0 0 
0 0 0 0 0 0 0 0 0 
0 0 0 0 0 0 0 0 0 
0 0 0 0 0 0 0 0 0 
0 0 0 0 0 6.05714e-10 0 5.26905e-09 0 
1.63765e-09 0 0 3.83263e-10 0 0 0 0 2.35748e-09 
0 0 0 0 0 0 0 0 0 
0 0 0 0 0 0 1.17896e-09 3.46697e-10 2.95941e-10 
0 0 0 0 0 0 0 7.13282e-07 0 
7.1308e-07 8.47508e-09 0 0 0 0 0 0 6.61851e-07 
0 0 0 0 0 0 0 0 0 
0 0 0 0 0 0 0 0 0 
0 0 0 0 0 0 0 0 0 
0 0 0 0 0 0 0 0 0 
0 0 0 0 0 0 0 0 0 
0 0 0 0 0 3.74248e-09 0 1.36883e-09 0 
0 0 0 0 0 0 0 0 0 
0 1.41595e-09 0 4.68228e-09 5.56015e-09 0 0 0 0 
0 0 0 0 0 0 1.73569e-09 0 0 
0 0 0 0 0 1.32484e-09 0 0 0 
0 0 2.53582e-09 0 0 3.18486e-10 0 0 0 
0 0 1.99362e-09 2.37363e-09 1.66334e-09 0 0 0 0 
0 0 0 0 0 0 0 0 0 
0 0 0 0 0 0 0 0 0 
0 0 0 0 0 0 0 0 0 
0 0 0 0 0 0 0 0 0 
0 0 0 0 0 0 0 2.13403e-09 0 
4.02425e-09 6.45021e-07 8.23722e-10 0 0 0 0 0 0 
0 0 0 0 6.45976e-07 0 0 0 0 
0 8.89316e-07 9.05648e-07 0 2.24926e-09 7.12941e-07 0 0 0 
0 0 0 0 0 0 0 1.74597e-09 0 
0 1.74933e-09 8.48374e-10 0 0 1.23137e-09 0 0 0 
2.03797e-09 0 0 1.22263e-09 0 0 0 0 0 
0 0 0 0 0 0 0 7.79771e-10 0 
0 0 0 0 0 0 0 0 0 
0 0 0 0 0 0 0 0 0 
0 0 0 0 0 0 0 0 0 
0 0 0 7.83123e-10 2.20426e-09 4.51638e-09 6.42416e-07 5.48822e-09 0 
0 2.77759e-09 3.51917e-09 0 0 0 0 0 0 
0 0 0 0 0 0 0 0 1.7288e-09 
0 0 0 0 0 0 2.03339e-09 0 1.14031e-09 
0 0 0 0 0 0 0 0 0 
0 0 3.6942e-10 0 0 0 0 0 0 
0 0 1.00165e-09 0 0 0 0 0 0 
4.20869e-10 0 0 0 0 0 1.42091e-09 1.50705e-09 0 
0 0 0 0 0 0 0 0 0 
0 0 0 0 0 0 0 0 0 
0 0 0 0 0 0 0 0 0 
0 0 0 0 0 0 0 0 5.23974e-09 
2.18022e-09 0 1.1923e-09 0 0 6.78603e-10 0 0 0 
0 5.50271e-10 0 0 0 0 0 0 6.54138e-10 
1.92387e-09 0 0 0 0 0 0 3.59642e-09 0 
1.27784e-09 0 0 0 0 2.57447e-10 0 0 0 
0 0 0 0 0 1.37759e-09 0 0 0 
0 0 0 0 0 0 0 0 1.52033e-09 
0 4.92241e-10 0 0 0 0 0 1.26848e-09 0 
0 0 0 0 0 0 0 0 0 
0 0 0 0 0 0 0 0 0 
0 0 0 0 0 0 0 0 0 
0 0 0 0 1.47252e-09 0 0 0 0 
0 0 0 0 1.02215e-09 0 0 0 0 
0 0 0 0 0 0 9.58757e-10 8.82166e-10 0 
5.57039e-10 0 0 0 0 1.97981e-09 0 0 0 
0 4.00585e-10 1.48525e-09 0 0 0 0 0 0 
0 0 0 0 0 0 0 4.71005e-09 0 
2.04459e-10 0 0 0 0 1.67166e-09 0 0 7.79974e-10 
0 0 0 0 0 0 0 0 0 
7.13072e-07 0 0 1.63846e-09 0 0 0 0 0 
0 0 0 0 0 0 0 0 0 
0 0 0 0 0 0 0 0 0 
0 0 0 0 0 1.74629e-10 0 0 0 
9.87966e-10 6.81303e-10 0 4.28225e-10 0 0 0 9.70052e-10 0 
0 0 0 4.4119e-10 0 0 7.71475e-10 0 0 
5.76768e-10 0 0 0 1.6552e-09 0 0 8.68568e-07 8.65903e-07 
0 0 0 0 0 0 0 0 0 
3.55857e-10 0 0 0 0 0 0 0 6.42561e-07 
0 0 0 4.02437e-10 0 0 0 0 0 
0 6.50417e-07 7.77526e-09 0 0 0 0 0 0 
5.6939e-09 1.7925e-09 0 0 0 0 0 0 0 
0 0 0 0 0 0 0 0 0 
0 0 0 0 0 0 0 0 0 
6.47663e-10 0 0 0 0 0 0 1.44902e-09 0 
0 6.29123e-10 0 0 0 0 0 0 0 
1.62871e-09 0 0 0 0 7.63621e-10 0 0 0 
0 0 0 0 0 0 0 1.63841e-10 3.37015e-09 
0 0 2.28869e-09 0 3.1778e-10 1.13495e-09 6.41221e-07 1.96872e-09 0 
1.16255e-09 0 0 0 0 0 0 2.78601e-09 0 
0 0 0 0 0 0 4.708e-09 0 0 
0 0 1.62809e-09 0 3.5672e-09 0 0 0 0 
1.21089e-09 0 7.19655e-07 1.80123e-09 0 2.63926e-10 0 0 0 
0 0 0 0 0 0 0 0 0 
0 0 0 0 0 0 0 0 0 
0 1.05084e-09 0 1.25303e-09 1.38099e-09 0 0 1.16336e-09 0 
0 0 0 1.99011e-10 0 0 0 0 0 
0 0 2.87765e-09 0 1.18554e-09 0 1.17227e-09 0 0 
0 0 0 0 0 0 0 2.21155e-09 0 
4.40109e-09 9.00687e-11 0 0 2.34945e-09 0 7.03855e-10 2.62619e-09 0 
0 0 1.02596e-09 0 0 0 0 6.07399e-10 0 
5.8816e-10 0 1.96685e-09 0 0 0 9.6042e-09 6.49347e-07 5.15833e-09 
0 0 0 0 0 0 0 7.01518e-10 0 
0 0 4.12527e-09 0 0 0 0 0 0 
0 0 0 0 0 0 0 0 0 
0 0 0 0 0 0 0 0 0 
0 0 0 0 0 0 0 0 0 
7.12038e-07 0 0 0 0 0 0 0 0 
0 0 4.33246e-09 6.42826e-07 0 0 1.88915e-09 0 6.93418e-07 
0 2.66036e-09 1.47141e-09 0 0 0 0 1.17121e-09 0 
0 0 0 0 0 0 0 0 0 
0 0 0 0 0 0 0 0 0 
0 0 1.38332e-09 0 0 0 0 0 3.40831e-09 
0 0 2.92549e-09 0 0 0 0 0 0 
0 0 0 3.09486e-09 0 0 1.26171e-09 0 0 
0 0 0 0 0 0 0 0 0 
0 0 0 0 0 0 0 0 0 
0 0 0 6.54667e-07 0 0 0 0 7.67644e-07 
0 0 0 0 0 0 0 0 0 
0 0 1.14283e-09 1.38595e-09 0 0 0 0 0 
0 0 6.99891e-07 0 0 3.74536e-09 0 0 0 
0 1.32973e-09 3.20204e-09 0 0 7.31417e-10 0 0 0 
1.0314e-09 0 0 0 0 0 0 0 3.08601e-10 
0 1.10438e-09 0 0 0 0 0 0 0 
0 0 0 0 0 6.5122e-07 0 0 0 
0 4.00044e-10 0 0 1.0228e-09 0 0 0 0 
0 0 0 0 0 0 0 0 0 
0 0 0 0 0 0 0 0 0 
0 0 1.77986e-09 3.68192e-09 0 0 0 0 0 
0 0 3.88995e-09 2.27878e-09 0 0 8.26733e-10 0 0 
0 0 0 0 0 0 0 0 0 
1.96724e-09 0 0 0 0 0 2.69749e-09 5.97686e-09 0 
0 6.05559e-09 6.9828e-07 0 0 0 0 0 0 
4.55641e-10 0 0 0 0 2.84151e-09 4.27983e-09 0 0 
0 0 0 0 0 0 1.8381e-09 0 0 
0 0 2.34924e-09 0 0 0 0 0 0 
0 0 0 0 0 6.67646e-07 0 0 0 
3.63354e-10 0 0 0 0 0 0 0 0 
0 0 0 0 0 0 0 0 0 
0 0 0 6.6757e-10 5.04799e-10 0 0 0 7.04502e-07 
9.26872e-09 0 7.35875e-07 4.37847e-09 2.46302e-09 0 0 0 0 
0 9.65097e-10 0 0 0 0 0 8.8806e-10 0 
0 1.09524e-09 1.40995e-09 0 0 0 0 0 0 
0 0 0 7.75542e-09 0 0 0 0 0 
0 0 0 0 1.20725e-09 0 6.54191e-07 4.922e-09 2.9788e-09 
0 0 0 0 0 0 6.45942e-07 2.14961e-09 1.84782e-09 
0 0 7.05171e-09 3.66496e-09 2.55782e-09 0 0 0 4.85082e-10 
0 0 1.09065e-09 0 0 0 0 3.67892e-10 0 
0 0 0 0 0 0 0 0 0 
0 0 0 0 0 0 0 0 0 
0 0 0 0 0 0 2.50664e-09 2.6545e-09 0 
0 0 0 0 0 0 0 1.09212e-09 3.01838e-09 
0 0 0 0 0 0 0 0 0 
0 0 0 0 0 0 0 0 0 
6.95555e-07 0 0 7.17189e-07 4.73706e-09 0 0 0 0 
0 0 0 0 0 0 0 3.08951e-09 0 
0 0 0 1.86021e-09 1.52417e-09 0 4.71166e-09 0 3.59029e-09 
0 0 4.63488e-09 6.46154e-07 0 0 1.25292e-09 0 1.08317e-09 
0 0 0 0 2.28426e-09 0 0 0 0 
0 0 0 0 0 0 0 0 0 
0 0 0 0 0 0 0 0 0 
0 0 0 0 0 0 0 0 0 
0 0 0 1.89879e-09 1.27439e-09 0 1.90632e-09 3.28602e-09 3.16039e-10 
0 8.63872e-07 0 0 0 0 0 0 0 
0 0 0 0 0 0 0 7.14477e-07 0 
5.92359e-09 0 0 0 0 0 0 0 0 
0 0 0 8.50226e-10 1.69836e-09 0 1.87952e-09 4.18257e-09 0 
2.35282e-09 0 0 0 0 0 0 3.73402e-10 0 
0 0 0 0 0 0 0 9.54003e-10 0 
3.93344e-10 0 0 0 2.99616e-09 0 0 6.70783e-07 0 
0 0 0 0 0 0 0 0 0 
0 0 0 0 0 0 0 0 0 
0 0 0 0 0 0 0 0 0 
0 0 1.30537e-09 0 1.56196e-09 0 0 0 0 
3.75592e-09 1.52188e-09 8.7693e-07 0 0 0 0 0 3.95966e-10 
0 0 0 0 0 2.97126e-09 0 6.22197e-09 0 
0 0 2.99942e-09 2.95698e-09 0 0 0 0 0 
0 0 0 0 0 1.34456e-09 0 5.3614e-07 0 
0 3.47207e-09 0 0 0 0 2.73164e-09 3.26068e-09 0 
0 0 1.06467e-09 2.23452e-09 3.91964e-10 0 0 0 0 
0 0 0 0 0 0 1.93312e-09 0 0 
0 0 0 0 0 0 0 0 0 
0 0 0 0 0 0 0 0 0 
0 0 0 0 0 0 0 0 0 
0 0 0 0 0 0 0 0 0 
0 0 0 0 0 0 6.78683e-07 4.25941e-09 0 
0 6.48137e-10 0 0 0 0 0 0 0 
0 0 0 0 0 0 0 0 0 
0 0 0 0 0 0 0 0 5.58453e-09 
0 0 0 0 7.41243e-07 0 7.9622e-07 0 0 
0 0 0 0 0 0 0 0 0 
0 0 0 0 0 3.66652e-09 6.51596e-07 0 0 
0 0 0 0 0 0 0 0 0 
0 0 0 0 0 0 0 0 0 
0 0 0 0 0 0 0 0 0 
0 0 0 0 0 0 0 0 0 
2.23632e-09 1.6078e-09 0 0 6.67136e-10 4.85803e-09 1.44714e-09 4.82165e-09 8.39819e-10 
0 1.75991e-09 0 0 0 0 0 0 0 
8.90434e-07 9.0447e-07 0 3.91529e-09 0 5.33602e-10 0 0 4.77554e-09 
0 0 0 0 0 0 0 0 0 
4.58979e-10 1.69351e-09 1.99841e-09 0 0 0 0 3.92962e-09 0 
1.5424e-09 0 0 0 0 1.09052e-09 0 0 0 
1.00011e-10 0 0 0 0 0 2.54255e-09 2.42607e-09 0 
2.39999e-09 2.82256e-09 0 0 0 0 0 0 0 
0 0 0 0 0 0 0 0 0 
0 0 0 0 0 0 0 0 0 
0 0 0 0 0 0 0 0 0 
0 0 0 2.36927e-09 0 0 0 0 0 
0 6.02811e-10 0 0 0 0 0 0 0 
0 0 0 0 0 0 0 0 3.7403e-09 
0 0 2.23031e-09 0 3.80764e-09 0 0 0 0 
0 2.6987e-09 0 0 0 0 0 0 3.63718e-09 
0 0 0 7.28367e-07 0 1.59555e-09 0 0 0 
0 0 0 0 0 0 0 0 0 
0 0 0 0 0 0 0 0 0 
0 0 0 0 0 0 0 0 0 
0 0 0 0 0 0 0 0 0 
0 0 0 0 0 0 0 0 0 
0 0 0 3.82948e-09 7.07981e-07 0 9.07388e-09 0 0 
4.28832e-09 3.65095e-09 0 2.429e-09 0 0 0 0 1.12812e-09 
0 0 0 0 0 0 0 0 0 
0 7.54416e-07 0 0 0 6.54079e-07 0 0 0 
0 7.52571e-10 0 0 0 0 0 0 0 
8.22581e-07 0 0 0 2.86264e-09 0 0 0 4.46121e-10 
0 0 0 0 0 0 0 0 0 
0 0 0 2.28488e-10 0 0 0 0 0 
0 0 0 0 0 0 0 0 0 
0 0 0 0 0 0 0 0 0 
0 0 0 6.33692e-10 0 0 0 0 0 
0 0 0 0 0 0 0 7.71079e-07 4.5628e-09 
0 0 0 6.49283e-07 0 0 1.49696e-09 0 0 
0 1.63956e-09 0 0 7.05151e-07 0 0 0 0 
0 0 1.07455e-08 0 0 0 4.37883e-09 0 0 
0 0 0 0 0 0 7.73651e-10 0 0 
0 0 9.44509e-10 0 7.40576e-07 6.75825e-09 0 0 0 
0 0 0 0 0 0 0 0 0 
0 0 0 0 0 0 0 0 0 
0 0 0 0 0 0 0 0 0 
0 0 0 0 0 0 0 0 0 
0 0 0 0 0 0 1.11716e-09 0 0 
0 0 0 0 3.08083e-10 0 0 0 5.55594e-09 
0 0 0 3.65355e-09 4.82866e-09 0 1.35473e-09 0 0 
0 0 5.04252e-10 0 0 0 0 9.90394e-10 0 
0 8.70778e-07 0 8.12403e-07 2.58569e-09 4.25294e-09 0 4.01414e-10 1.98948e-09 
1.36282e-09 0 0 0 0 0 0 0 0 
0 0 2.67196e-09 0 0 0 0 0 0 
0 0 0 0 0 0 0 0 0 
0 0 0 0 0 0 0 0 0 
0 0 0 0 0 0 0 0 0 
0 0 0 0 0 0 0 0 0 
0 0 0 0 0 0 0 0 0 
5.42838e-10 0 0 2.80771e-10 0 0 2.09369e-09 2.20652e-09 1.05727e-08 
7.26072e-07 0 0 1.59063e-09 0 0 0 0 0 
0 0 0 0 4.8884e-10 0 0 9.3482e-09 0 
0 8.49466e-07 0 0 0 0 0 0 0 
0 0 0 0 0 6.62146e-07 0 3.57755e-09 0 
0 1.91464e-09 0 0 4.31948e-09 0 0 0 0 
0 4.18205e-10 0 0 0 0 0 0 0 
0 0 6.11809e-10 0 0 0 0 7.33614e-10 0 
0 0 0 0 0 0 0 0 0 
0 0 0 0 0 0 0 0 0 
0 0 0 0 0 0 0 6.39925e-07 0 
0 0 0 0 0 0 0 0 0 
0 0 0 0 1.8867e-09 1.19694e-09 0 0 3.9495e-10 
0 0 0 0 0 0 0 0 0 
7.47009e-07 0 0 0 0 0 0 0 0 
0 0 0 0 0 0 5.05679e-09 0 3.65777e-09 
0 0 0 0 0 0 2.67427e-09 0 1.61724e-09 
9.54302e-10 0 0 0 0 0 0 0 0 
0 0 0 0 0 0 0 0 0 
0 0 0 0 0 0 0 0 0 
0 0 0 0 0 0 0 0 0 
0 0 0 0 0 0 2.22296e-09 2.28442e-09 0 
0 0 0 0 0 4.89006e-10 0 6.03067e-10 0 
1.51427e-09 1.39881e-09 1.62611e-10 0 0 0 0 0 0 
0 0 0 0 0 9.21051e-10 0 2.97008e-09 0 
0 0 0 0 0 0 0 1.48114e-09 0 
0 0 0 0 0 0 0 0 0 
4.52907e-09 0 0 8.37277e-07 0 8.33236e-07 9.2634e-09 0 0 
0 0 0 0 0 0 0 0 0 
4.08027e-10 0 0 0 3.64882e-09 0 0 0 0 
2.06761e-09 0 0 0 0 0 0 0 0 
0 0 0 0 0 0 0 0 0 
0 0 0 0 0 0 0 0 0 
0 0 0 0 1.61708e-09 0 0 0 0 
0 0 0 0 0 0 0 0 0 
0 0 0 0 0 0 0 0 0 
1.93665e-09 0 4.74611e-09 0 0 4.51941e-09 0 0 0 
0 0 0 0 0 0 0 0 0 
6.70172e-07 2.72927e-09 0 0 0 8.71657e-07 0 3.81311e-09 2.84724e-09 
7.19382e-10 0 0 0 0 0 0 0 3.12529e-10 
0 0 0 0 4.19034e-09 0 0 0 7.10402e-07 
0 0 0 4.06791e-10 0 0 0 0 0 
0 0 0 0 0 0 0 0 0 
0 0 0 0 0 0 0 0 0 
0 0 0 0 0 0 0 6.4008e-07 0 
0 0 0 0 0 0 0 3.65345e-10 0 
0 0 0 0 6.44358e-07 0 0 0 0 
0 0 0 0 8.9803e-07 8.84272e-07 0 0 0 
0 0 0 0 0 0 0 0 0 
2.95481e-09 9.34946e-09 0 0 0 1.72545e-09 0 0 1.75127e-09 
0 0 0 0 0 5.03076e-10 0 0 0 
1.45471e-09 0 0 0 0 5.60778e-09 6.93389e-07 0 0 
0 0 4.38816e-10 0 0 0 0 0 0 
0 0 0 0 0 0 0 0 0 
0 0 0 0 0 0 0 0 0 
0 0 0 0 0 0 0 1.28185e-09 1.90151e-09 
0 0 0 0 0 0 0 0 0 
0 0 0 0 0 0 0 2.26841e-09 0 
0 0 0 0 0 1.13122e-08 0 0 0 
0 0 0 0 0 0 0 0 9.03659e-10 
0 0 0 0 0 0 0 0 0 
0 0 3.17025e-10 0 0 0 0 0 0 
0 0 1.677e-09 0 0 0 0 1.85173e-09 0 
4.97398e-09 0 7.0477e-07 0 0 0 0 0 0 
0 0 0 0 0 0 0 0 0 
0 0 0 0 0 0 0 0 0 
0 0 0 0 0 0 0 0 0 
0 0 0 0 0 0 0 0 0 
0 0 0 0 0 2.58016e-09 0 0 0 
0 0 0 0 7.19364e-10 0 0 9.56038e-10 3.30504e-09 
0 0 0 0 7.04888e-10 0 0 0 0 
0 0 0 0 0 0 1.74438e-09 0 2.97449e-09 
2.77195e-09 0 0 0 0 0 0 0 0 
0 0 0 0 0 0 6.81515e-07 9.98486e-10 1.52802e-09 
0 0 4.01817e-09 2.51011e-09 0 0 0 0 0 
0 0 0 0 0 0 0 0 0 
0 0 0 0 0 0 0 0 0 
0 0 0 0 0 0 0 0 0 
0 0 0 5.31019e-10 0 0 0 0 0 
0 0 0 0 0 0 0 1.85024e-09 0 
0 0 0 0 1.92e-09 3.25824e-09 6.71988e-07 0 0 
0 0 1.21386e-09 0 0 0 0 0 0 
0 0 0 0 0 0 0 0 0 
0 0 0 0 0 0 3.74495e-09 0 1.13576e-09 
1.22095e-09 0 0 6.49796e-07 0 1.70577e-09 0 0 0 
3.66126e-09 0 0 0 0 2.3938e-09 0 0 0 
0 0 0 0 0 0 0 0 0 
0 0 0 0 0 0 0 0 0 
0 0 0 0 0 1.85406e-09 0 0 0 
6.25545e-10 0 0 0 0 0 0 0 0 
0 0 0 0 0 0 6.44349e-07 0 0 
0 0 0 0 0 0 0 0 3.15019e-09 
0 0 0 0 0 0 0 0 0 
0 0 0 0 0 0 0 0 0 
0 0 1.41428e-09 0 0 2.29775e-09 5.72261e-09 6.4511e-07 0 
0 0 0 0 8.7464e-09 0 0 0 0 
0 1.54056e-09 0 0 0 0 0 0 0 
0 5.33077e-10 0 0 0 0 0 0 0 
0 0 0 0 0 0 0 0 0 
0 0 0 0 0 0 6.406e-07 4.26604e-09 1.62646e-09 
0 0 0 0 0 0 0 0 0 
0 0 0 0 0 1.15614e-09 2.21061e-09 0 0 
0 0 6.01624e-10 0 0 0 0 1.25906e-09 0 
2.50759e-09 0 0 8.28449e-10 0 0 1.49433e-09 6.71547e-07 0 
0 7.98785e-10 0 0 0 0 0 0 0 
0 0 0 0 0 0 0 2.70729e-09 0 
0 1.36796e-10 0 0 0 0 0 0 1.12281e-09 
0 0 0 4.03586e-09 0 0 0 6.55668e-07 0 
0 0 0 0 0 0 0 0 0 
0 0 0 0 0 0 0 0 0 
0 0 0 0 8.33389e-10 0 0 0 2.71694e-09 
0 0 0 0 0 0 0 0 0 
0 0 0 0 0 0 0 0 7.1852e-10 
0 1.3245e-09 7.0639e-10 5.99816e-10 0 0 0 0 0 
0 0 0 0 6.75519e-10 0 2.33383e-09 0 0 
0 0 0 0 0 0 0 0 0 
0 1.59907e-10 0 0 0 6.44381e-07 4.50582e-09 4.41276e-09 0 
0 0 0 0 0 9.75897e-10 0 0 0 
3.72387e-09 0 6.52199e-07 3.094e-09 0 1.88611e-09 0 1.59419e-09 0 
0 0 0 0 0 0 0 0 0 
0 0 0 0 0 0 0 0 0 
0 0 0 0 0 0 0 0 0 
1.73975e-09 0 0 0 0 0 0 0 0 
0 0 2.64923e-10 0 6.44803e-10 0 0 0 0 
1.32481e-09 0 9.30413e-10 0 0 0 0 0 0 
0 0 0 6.5798e-10 0 0 0 0 0 
0 0 0 9.76005e-07 9.04682e-07 0 0 4.91187e-10 0 
0 0 0 0 0 0 0 0 0 
1.09277e-09 0 0 1.51714e-10 0 0 6.42827e-10 0 0 
0 0 1.13077e-09 0 0 0 0 0 0 
0 0 0 0 0 0 0 0 0 
0 0 0 0 0 0 0 0 0 
0 0 0 0 0 0 0 0 2.45772e-09 
9.17419e-10 0 0 0 0 0 0 0 0 
0 0 0 0 0 0 0 0 0 
0 3.74238e-10 0 0 0 0 0 7.07504e-10 3.29973e-10 
6.31211e-10 0 1.32231e-10 0 0 0 0 0 0 
0 0 0 8.22046e-07 0 0 7.42731e-09 0 0 
0 0 0 0 0 0 0 0 0 
0 0 0 0 0 0 0 0 0 
2.99851e-09 0 1.72899e-09 0 0 0 1.27288e-09 0 0 
0 0 1.95821e-09 0 0 0 0 0 0 
0 0 0 0 0 0 0 0 0 
0 0 0 0 0 0 0 0 0 
0 0 0 0 0 0 0 0 0 
8.68046e-10 0 0 0 0 0 2.10346e-09 0 3.94688e-10 
0 0 0 3.17611e-10 0 0 4.23681e-09 6.42767e-07 0 
0 0 0 0 1.79042e-09 0 0 0 0 
6.64905e-07 0 3.85226e-09 0 0 0 0 0 0 
0 0 0 0 0 0 0 0 0 
0 0 5.58228e-10 5.56072e-10 0 0 0 0 5.14506e-09 
6.60973e-07 0 0 1.09105e-09 0 0 8.25312e-11 0 0 
2.05322e-09 6.52058e-07 0 0 0 0 0 0 0 
0 0 0 0 0 0 0 0 0 
0 0 0 0 0 0 0 0 0 
0 0 0 6.15572e-09 0 0 0 0 0 
0 0 0 0 0 6.23222e-09 6.72782e-07 0 0 
5.55941e-10 0 0 0 0 0 0 0 0 
2.61616e-09 0 0 3.40008e-11 0 0 2.98319e-10 1.75489e-09 0 
0 5.79461e-09 0 0 0 0 0 3.66164e-09 0 
0 8.36461e-10 0 0 0 0 0 0 0 
0 0 0 0 0 0 0 0 0 
0 0 0 2.71284e-09 0 0 0 0 2.02222e-09 
0 1.11022e-08 0 0 0 0 0 0 0 
0 0 0 0 0 0 0 0 0 
0 0 0 0 0 0 0 0 0 
0 0 0 6.4057e-07 0 0 0 0 0 
0 0 0 0 6.73632e-07 0 0 0 0 
0 0 0 0 0 0 0 3.68099e-09 0 
2.2863e-09 0 0 0 0 0 1.23502e-09 0 6.51869e-07 
4.55216e-09 3.37815e-09 0 0 0 0 0 1.80735e-09 0 
0 0 0 0 0 0 0 0 0 
0 0 0 0 0 0 0 0 2.1356e-09 
0 0 0 0 0 0 0 0 0 
0 0 2.51999e-09 0 0 0 0 0 0 
0 0 0 0 0 0 0 0 0 
0 0 0 0 0 0 0 0 0 
0 0 0 0 1.91065e-09 0 0 0 0 
0 0 0 7.81786e-10 0 0 1.2824e-09 0 0 
0 2.06712e-09 0 0 0 0 3.72105e-09 0 0 
2.36243e-09 0 9.13162e-10 0 0 0 0 0 0 
0 2.31546e-09 1.35715e-09 0 0 0 0 0 1.10901e-09 
0 0 1.71535e-09 6.63207e-07 5.2301e-09 0 0 0 0 
0 0 0 0 0 0 0 0 0 
0 0 0 0 0 1.47817e-09 0 2.16336e-09 0 
6.47785e-07 0 0 0 1.83015e-09 0 0 0 0 
0 0 0 0 0 0 0 0 0 
0 0 0 0 0 0 0 0 0 
0 0 0 7.35932e-10 0 7.53915e-10 0 0 1.02696e-09 
5.10072e-10 7.60091e-10 0 3.15946e-09 0 0 0 0 0 
2.26727e-09 2.47521e-09 7.31034e-07 3.65797e-09 0 3.44492e-09 0 6.57997e-07 2.55186e-09 
0 0 0 4.41865e-10 1.41671e-09 2.32441e-09 1.36491e-09 0 0 
0 2.2355e-09 0 5.12299e-10 0 0 0 0 0 
0 0 0 0 0 0 0 0 0 
0 0 0 0 0 0 0 0 4.40447e-10 
0 0 0 9.72825e-07 1.07374e-06 0 0 0 0 
0 0 0 0 4.50122e-10 0 0 0 0 
0 0 0 0 0 0 0 0 0 
0 0 0 0 0 0 0 0 0 
0 0 0 0 0 0 0 0 0 
0 0 0 0 0 7.01604e-07 2.21351e-09 0 1.93937e-09 
0 0 4.36001e-09 1.30291e-09 0 0 0 0 1.98322e-09 
2.43105e-09 0 0 0 0 6.66648e-07 1.79768e-09 1.38002e-09 1.64643e-09 
0 0 0 0 0 0 0 0 0 
0 0 0 0 0 0 3.89918e-09 0 0 
0 0 0 0 0 0 0 0 0 
0 0 0 0 0 9.7671e-07 0 0 4.1195e-09 
1.64413e-09 0 0 0 0 1.25784e-09 0 0 7.59285e-07 
0 0 1.51032e-09 4.49967e-10 0 0 0 0 0 
0 0 0 0 0 0 0 0 0 
0 0 0 0 0 0 0 0 0 
0 0 0 0 0 0 0 0 0 
0 2.4653e-09 0 0 7.36633e-07 0 2.08815e-09 0 2.99298e-09 
8.62255e-10 0 0 3.99931e-09 0 0 0 0 0 
2.47155e-09 0 0 4.58631e-10 0 7.78225e-10 0 8.16621e-10 0 
0 0 0 0 0 0 0 6.74737e-07 0 
0 2.03975e-09 0 0 0 0 0 0 0 
0 0 0 1.49912e-09 0 0 0 0 0 
0 3.9381e-09 0 0 0 0 0 0 0 
0 7.6292e-07 0 0 0 0 0 0 0 
0 0 0 0 0 0 0 0 0 
0 0 0 0 0 0 0 0 0 
1.24195e-10 0 5.54036e-10 0 0 6.54422e-09 6.90547e-07 3.323e-09 0 
1.64574e-09 0 0 2.28799e-09 0 0 4.12365e-10 0 1.65899e-09 
0 0 4.00808e-09 6.59181e-07 1.13519e-09 1.14259e-09 0 0 0 
0 0 1.30247e-09 0 1.57856e-09 0 7.69836e-10 0 0 
0 0 2.40545e-09 7.5698e-07 8.31547e-09 0 7.40267e-10 0 0 
0 0 7.54931e-09 0 0 0 0 0 3.86679e-10 
0 4.74233e-10 1.32987e-09 0 0 0 9.74005e-10 4.47188e-09 8.61391e-10 
0 6.62615e-07 3.29122e-09 2.14273e-09 0 1.41843e-09 0 0 0 
0 0 0 3.05041e-09 0 0 0 0 0 
0 0 0 0 0 0 0 0 0 
0 0 0 0 0 0 0 0 0 
0 0 0 0 0 0 2.95081e-09 0 0 
0 0 0 7.3584e-10 0 0 5.21535e-10 0 3.08363e-09 
0 0 0 0 0 1.00069e-08 0 1.37332e-09 0 
6.66778e-07 0 2.11448e-09 0 0 2.79899e-09 0 0 0 
0 0 0 0 0 7.58985e-07 0 1.60169e-09 0 
0 0 0 4.36867e-09 0 0 0 0 0 
0 0 0 0 0 1.15877e-10 1.95006e-09 3.15065e-10 0 
0 2.89048e-09 0 0 0 0 0 0 0 
1.38629e-10 0 0 0 2.76939e-09 0 0 0 0 
0 0 0 0 0 0 0 0 0 
0 0 0 0 0 0 0 0 0 
0 0 0 0 0 0 0 0 0 
0 1.37268e-09 0 2.66654e-10 4.99035e-10 0 0 0 6.68703e-07 
0 0 1.69393e-09 0 0 0 0 4.049e-09 0 
0 0 5.93097e-10 2.74044e-09 0 0 6.56821e-07 0 0 
0 0 0 1.68023e-09 0 0 0 0 0 
0 0 0 0 9.26119e-07 9.53999e-07 1.77943e-09 0 0 
0 0 0 6.45968e-10 6.50941e-07 0 0 0 0 
0 0 2.94954e-09 0 0 0 0 0 0 
0 0 5.44931e-09 0 0 0 0 0 0 
0 0 0 0 0 0 0 0 0 
0 0 0 0 0 0 0 0 0 
0 0 0 0 0 0 0 0 0 
0 0 0 5.33412e-10 0 0 0 0 0 
0 0 0 0 0 0 0 0 0 
0 0 0 0 0 8.93875e-10 0 0 0 
1.75121e-09 1.37505e-09 0 0 0 0 1.95158e-09 0 1.12779e-09 
0 0 0 0 0 0 0 0 0 
0 0 0 0 0 4.24223e-09 3.00193e-09 0 0 
1.57642e-09 0 0 0 0 1.7298e-10 0 4.68907e-10 0 
3.86653e-09 0 0 5.0484e-09 8.14724e-07 0 0 0 0 
0 0 0 0 0 0 0 0 0 
0 0 0 0 0 0 0 0 0 
0 0 0 0 2.4537e-10 0 0 0 0 
0 0 0 0 0 0 0 9.25782e-10 0 
0 0 0 1.03592e-09 0 0 0 0 0 
0 0 0 0 0 3.4636e-09 3.1579e-09 0 2.69537e-09 
0 1.53781e-09 1.34375e-09 0 0 0 0 0 0 
0 0 0 0 0 0 0 9.9227e-07 9.88052e-09 
0 0 0 0 2.43778e-09 0 0 0 2.44078e-09 
8.20797e-10 0 0 2.17501e-09 0 0 0 0 0 
0 0 3.9741e-09 0 9.73017e-07 0 0 0 1.14654e-09 
0 0 0 0 0 0 0 0 0 
0 0 0 0 0 0 0 0 0 
0 0 0 0 0 0 0 0 1.71052e-09 
4.99174e-09 0 0 0 5.43251e-10 0 0 0 6.46933e-07 
4.57291e-09 5.35529e-10 0 1.9519e-09 0 0 1.89652e-09 0 0 
0 0 0 0 0 1.05795e-09 0 6.6643e-07 0 
0 0 0 3.73974e-10 0 0 0 0 0 
9.15094e-10 0 0 0 2.36921e-09 0 0 0 9.31455e-07 
0 0 0 0 7.39989e-07 0 0 0 0 
0 0 0 0 0 0 0 1.91181e-09 2.94228e-09 
0 6.71966e-07 1.4857e-09 3.92739e-10 0 9.10214e-07 0 0 6.95934e-10 
1.12705e-09 0 0 0 0 0 0 0 0 
0 0 0 0 0 0 0 0 0 
0 0 0 0 0 0 0 0 0 
0 0 0 7.04845e-10 0 0 0 0 0 
2.94604e-09 1.97372e-09 0 9.9043e-10 0 0 1.4424e-09 0 0 
0 0 0 0 0 0 0 0 1.14497e-09 
0 1.24324e-09 2.6775e-09 0 0 2.45825e-09 0 0 0 
1.12286e-09 0 0 2.03644e-09 0 8.30032e-10 1.51412e-09 0 0 
6.22005e-09 0 0 9.39391e-07 0 1.33344e-09 0 3.75143e-09 0 
9.62251e-10 4.51062e-09 0 2.23129e-09 3.06331e-09 0 6.60432e-07 0 0 
2.18678e-09 0 3.97939e-09 1.6783e-09 3.449e-09 0 0 0 0 
0 0 0 0 0 0 0 0 0 
0 0 0 0 0 0 0 0 0 
0 0 0 0 0 0 0 0 0 
0 6.09105e-09 6.7191e-07 5.5215e-09 0 4.51818e-10 0 0 0 
2.79901e-10 6.63896e-10 1.69344e-09 8.36124e-10 0 0 0 0 6.47549e-07 
0 0 0 0 0 0 0 0 0 
0 0 6.7873e-09 0 0 4.06465e-09 0 1.30369e-09 0 
0 1.57124e-09 0 0 0 9.9627e-10 0 0 0 
0 0 1.43494e-09 0 9.04099e-07 0 0 4.17021e-09 0 
6.90776e-07 0 1.4216e-09 6.80739e-07 4.26924e-09 0 0 4.90907e-09 2.68805e-09 
0 2.32301e-09 0 0 0 0 0 0 2.02376e-09 
1.74968e-09 8.19774e-10 0 0 0 0 0 0 0 
0 0 0 0 0 0 0 0 0 
0 0 0 0 0 0 0 0 0 
0 0 0 0 0 6.47502e-10 1.3428e-10 0 0 
0 0 0 0 0 0 0 0 0 
1.18102e-09 0 0 0 4.99894e-10 0 0 0 0 
1.34552e-09 0 0 0 0 0 7.58239e-07 0 0 
0 1.45803e-09 0 0 0 0 0 0 0 
0 0 0 0 0 0 0 1.1585e-09 0 
0 7.16912e-10 0 9.64635e-10 4.39863e-09 0 5.85819e-09 0 0 
0 0 0 0 0 5.24914e-09 4.16469e-09 0 9.04694e-10 
0 0 0 0 0 0 0 0 0 
0 0 0 0 0 0 0 0 0 
0 0 0 0 0 0 0 0 0 
0 0 0 0 0 3.69913e-09 0 0 0 
3.80885e-10 0 3.15309e-09 0 0 0 4.81822e-11 0 1.11804e-09 
0 0 0 0 0 0 0 0 0 
4.58776e-10 0 0 1.45797e-09 0 0 0 0 2.82162e-09 
3.07686e-09 0 0 0 6.74261e-07 0 0 0 0 
0 0 1.465e-09 0 0 0 0 0 0 
0 0 6.05151e-10 0 0 0 0 2.3616e-09 0 
1.00594e-09 0 4.20335e-09 0 0 7.71767e-07 0 0 0 
0 0 0 0 0 0 0 0 0 
0 0 0 0 0 0 0 0 0 
0 0 0 0 0 0 0 2.01455e-10 0 
9.58497e-10 0 0 8.68186e-07 8.84591e-07 0 0 0 0 
0 0 0 6.40787e-09 0 0 0 0 2.81229e-10 
8.25988e-10 0 0 1.90584e-09 0 0 0 0 0 
0 0 0 0 0 0 0 8.66526e-07 1.20575e-09 
0 0 0 0 4.91088e-09 0 0 0 6.69358e-07 
0 0 0 0 6.55776e-07 0 0 0 0 
3.84435e-10 0 0 2.53577e-09 0 0 0 0 0 
0 0 6.78594e-07 0 0 0 0 7.6007e-07 0 
0 0 3.99922e-10 0 0 0 0 0 0 
0 0 0 0 0 0 0 0 0 
0 0 0 0 0 0 0 0 0 
0 1.59282e-09 0 0 0 0 5.63039e-09 0 0 
1.73689e-09 0 0 0 0 6.40934e-07 7.46259e-09 3.2181e-09 0 
0 8.86541e-10 0 1.88939e-09 6.46916e-07 0 1.72972e-09 0 0 
3.40717e-10 0 0 0 0 0 0 0 0 
0 0 0 0 4.67398e-09 6.67681e-10 0 0 7.4812e-10 
0 5.66144e-09 0 0 0 0 0 1.05973e-09 0 
1.75174e-09 0 6.54264e-07 0 0 0 2.48157e-09 0 0 
6.78334e-07 0 0 2.69593e-09 0 1.40289e-09 0 0 0 
0 0 0 0 0 0 0 0 0 
0 0 0 0 0 0 0 0 0 
0 0 0 0 0 0 0 0 0 
0 0 6.84654e-10 0 1.85042e-09 0 0 0 0 
0 0 1.46985e-09 0 0 0 1.6666e-09 0 0 
0 0 0 0 0 3.17638e-09 0 0 0 
0 5.07545e-10 0 0 0 0 0 9.80955e-07 1.14322e-06 
1.03667e-06 0 0 1.77581e-09 7.6553e-07 0 0 3.20346e-09 0 
0 0 0 0 0 0 0 0 0 
0 0 2.10993e-09 2.42619e-09 0 1.02144e-09 3.41696e-09 0 0 
1.22386e-09 0 0 0 0 0 0 1.6241e-09 0 
3.07105e-09 0 0 0 0 0 0 0 0 
0 0 0 0 0 0 0 0 0 
0 0 0 0 0 0 0 0 0 
0 0 0 0 0 3.16911e-09 0 0 7.26831e-09 
8.67132e-07 0 0 0 0 0 0 0 0 
0 0 0 0 0 0 0 0 1.02751e-09 
0 0 0 0 0 0 0 0 0 
2.18419e-09 0 0 0 0 0 5.96058e-09 7.27024e-07 0 
0 3.891e-09 0 0 0 5.11981e-10 0 0 0 
0 9.42081e-10 0 0 0 0 0 0 6.57672e-07 
0 0 0 0 4.04456e-10 0 0 5.15755e-10 0 
0 0 0 0 0 0 0 0 0 
0 0 0 0 0 0 0 0 0 
0 0 0 0 0 0 0 0 0 
0 0 0 0 0 0 0 0 0 
0 8.57199e-07 0 7.23051e-10 0 0 0 0 0 
0 0 0 0 0 0 9.8682e-10 0 1.06389e-09 
0 0 0 0 0 0 9.77362e-10 0 0 
0 1.72216e-09 0 2.3282e-09 0 7.3277e-07 0 0 4.08736e-09 
0 0 0 0 4.43624e-10 0 0 0 0 
4.99543e-10 0 0 0 0 0 0 0 0 
0 0 2.03275e-09 0 0 0 0 0 0 
0 0 0 4.73553e-10 0 0 0 0 0 
0 0 0 0 0 0 0 0 0 
0 0 0 0 0 0 0 0 0 
0 0 0 0 0 0 0 0 0 
0 0 1.81493e-08 0 2.54302e-09 0 0 0 0 
0 0 0 0 0 0 0 0 0 
0 0 0 0 0 1.2292e-09 0 2.52018e-09 0 
4.3522e-09 7.03547e-07 2.94693e-09 0 0 0 6.811e-09 3.93517e-09 5.89128e-09 
0 0 0 0 8.58055e-07 0 0 0 0 
0 0 0 0 0 0 0 0 0 
0 0 1.57678e-09 7.00811e-10 0 2.2457e-09 2.27888e-09 0 0 
1.20329e-09 0 0 0 0 0 0 0 0 
0 0 0 0 0 0 0 0 0 
0 0 0 0 0 0 0 0 0 
0 0 0 0 0 0 0 0 0 
0 0 1.9411e-09 4.30414e-10 0 0 0 0 0 
0 3.03979e-10 0 0 0 0 0 0 0 
2.4513e-10 0 0 0 0 3.15224e-09 0 5.80067e-09 1.26767e-09 
0 0 1.94188e-09 0 9.57474e-10 1.69041e-09 0 1.92846e-09 0 
1.24891e-09 0 0 0 2.65168e-09 8.54076e-07 0 3.88789e-09 1.89332e-09 
0 0 0 0 0 0 0 0 0 
0 0 0 0 5.80379e-10 5.87395e-10 0 0 2.34482e-09 
0 0 0 0 0 0 0 0 0 
0 0 0 0 0 0 0 0 0 
0 0 0 0 0 0 0 0 0 
0 0 0 0 0 0 0 4.0407e-09 0 
0 0 7.0723e-10 1.02754e-09 0 0 0 0 0 
0 3.61272e-10 0 0 0 0 0 0 0 
0 0 0 0 0 0 1.10196e-09 3.27958e-09 0 
0 0 0 1.77557e-09 0 0 0 0 0 
6.583e-10 0 0 0 0 0 0 0 0 
0 0 0 0 0 9.13306e-10 0 0 0 
0 0 0 0 0 0 1.42767e-09 0 6.48111e-07 
0 1.71319e-09 0 0 0 0 0 0 0 
0 0 0 0 0 0 0 0 0 
0 0 0 0 0 0 0 0 0 
0 0 0 0 0 0 0 8.50831e-10 6.4012e-07 
0 0 1.16062e-09 0 0 0 2.50815e-10 0 1.20244e-09 
8.26394e-10 0 0 0 0 0 0 0 0 
0 0 0 0 4.09875e-10 0 0 0 6.52317e-10 
0 0 0 0 0 0 0 0 0 
0 0 0 0 0 1.48886e-09 0 5.05621e-09 0 
1.74782e-09 0 1.19649e-10 0 4.31827e-09 0 0 0 0 
0 0 0 0 0 0 0 0 3.12031e-09 
2.17956e-09 0 0 0 0 0 0 0 0 
0 0 0 0 0 0 0 0 0 
0 0 0 0 0 0 0 0 0 
0 0 0 0 0 0 0 0 2.19262e-09 
1.70243e-09 0 7.90721e-10 8.5554e-10 0 0 9.9176e-10 0 0 
0 0 0 0 0 0 0 0 0 
0 0 0 0 8.03744e-10 0 0 0 1.30915e-09 
0 0 0 0 0 0 0 0 0 
0 0 0 0 0 0 0 0 0 
0 0 2.74797e-09 0 1.41469e-09 6.77116e-07 0 0 0 
0 0 0 0 0 0 0 0 0 
0 0 0 0 0 0 0 1.26043e-09 0 
0 0 0 0 0 0 0 0 0 
0 0 0 0 0 0 0 0 0 
0 0 0 0 0 0 0 0 0 
0 2.13018e-09 1.89513e-09 0 0 0 0 2.88114e-09 6.54282e-07 
4.67164e-09 0 0 2.00327e-09 0 0 0 0 0 
1.8823e-10 0 0 0 0 7.10323e-10 0 0 0 
0 0 0 0 0 0 0 0 0 
0 0 0 0 0 0 0 0 0 
0 0 2.44673e-09 0 0 0 0 0 3.42643e-09 
0 0 5.72864e-10 0 0 0 0 0 0 
1.10633e-09 0 0 0 0 0 0 0 0 
0 0 0 6.66748e-10 1.53881e-10 0 0 0 0 
0 0 0 0 0 0 0 0 0 
0 0 0 0 0 0 0 0 0 
0 0 0 0 0 0 0 0 0 
0 0 4.20217e-09 2.14319e-10 6.67898e-07 0 0 1.61743e-09 0 
0 0 0 0 0 0 0 0 0 
0 0 0 0 1.14245e-09 0 0 2.53103e-09 0 
0 0 0 0 0 4.3616e-10 0 0 0 
0 8.82433e-10 0 0 5.56219e-09 0 6.2914e-09 0 0 
4.67067e-09 5.83732e-10 0 0 0 0 0 0 0 
2.44702e-10 3.91042e-10 2.11951e-09 0 6.48114e-07 4.32534e-09 0 0 3.121e-09 
0 1.953e-09 0 0 0 0 0 0 0 
0 0 0 0 0 0 0 0 0 
0 0 0 0 0 0 0 0 0 
0 0 0 0 0 0 0 0 0 
0 0 0 0 0 0 0 0 0 
0 0 0 9.50561e-10 3.24907e-09 0 0 2.3994e-09 0 
2.33432e-09 0 0 0 0 0 3.02479e-09 6.41515e-07 0 
4.66561e-09 0 0 0 0 0 0 0 0 
6.42839e-07 4.81782e-09 0 1.6897e-09 0 0 0 0 0 
9.21432e-09 6.581e-07 0 2.53221e-09 0 0 0 0 0 
0 0 1.01297e-09 0 0 1.50666e-09 0 0 0 
0 0 8.49814e-07 0 0 0 0 0 0 
0 0 0 0 0 0 0 0 0 
0 0 0 0 0 0 0 0 0 
0 0 0 0 0 0 0 0 0 
0 0 0 0 0 0 4.83395e-09 0 0 
1.59471e-09 3.25404e-10 0 0 5.99198e-10 0 6.65442e-07 0 3.9501e-09 
0 0 0 0 0 0 2.18642e-09 6.95566e-10 0 
0 0 0 0 1.80257e-10 0 0 0 0 
0 0 1.93647e-09 0 0 0 0 0 0 
0 0 1.89938e-09 2.71601e-09 0 0 0 0 0 
0 0 0 0 0 0 0 0 1.28116e-09 
9.59186e-10 2.69907e-09 0 8.49571e-07 5.38465e-09 0 0 0 0 
0 0 0 0 0 0 0 0 0 
0 0 0 0 0 0 0 0 0 
0 0 0 0 0 0 0 0 1.23095e-09 
0 2.16505e-09 0 0 0 0 6.88955e-07 2.70793e-09 0 
1.08916e-09 1.32205e-09 0 0 0 0 0 0 0 
0 0 0 8.06035e-07 1.03099e-09 0 0 0 0 
0 6.35669e-10 0 0 0 0 0 4.28224e-10 0 
2.43344e-09 0 0 0 0 0 0 0 0 
1.19393e-09 0 0 0 0 0 0 0 0 
0 0 0 0 0 0 0 0 0 
0 0 0 0 0 0 1.36853e-09 6.71503e-10 0 
0 0 0 0 0 0 0 0 0 
0 0 0 0 0 0 0 0 0 
0 0 0 0 0 0 3.60083e-09 1.3495e-09 0 
0 0 0 2.96623e-09 0 0 0 0 3.30797e-09 
0 0 0 0 0 0 0 0 0 
0 0 7.28705e-07 0 2.76484e-09 7.80204e-07 9.47668e-09 0 0 
1.78334e-09 1.08047e-09 0 0 0 0 0 0 0 
0 0 0 0 0 0 0 0 0 
0 0 0 0 0 0 0 0 0 
0 0 0 0 0 0 0 0 0 
0 0 0 0 0 0 2.15705e-09 2.49721e-09 0 
0 0 0 0 0 0 0 0 0 
0 0 0 0 0 0 0 0 0 
0 0 0 0 0 0 0 6.43314e-07 0 
0 0 0 0 8.7327e-07 3.95265e-09 0 0 0 
0 0 0 0 0 0 0 6.55412e-07 1.84748e-09 
0 0 3.51822e-09 7.84921e-09 0 0 0 0 3.85627e-09 
0 0 0 0 0 0 0 7.00457e-10 0 
0 0 0 0 8.38867e-10 0 0 0 0 
0 0 0 0 0 0 0 0 0 
0 0 0 0 0 0 0 0 0 
0 0 0 0 0 0 3.05994e-10 7.07301e-10 0 
0 0 0 0 0 0 0 0 0 
0 0 0 0 0 0 0 0 0 
0 0 0 0 0 0 0 0 4.27863e-09 
3.54735e-09 0 0 0 7.82499e-07 0 0 3.17243e-09 0 