# vtk DataFile Version 5.1
vtk output
ASCII
DATASET STRUCTURED_POINTS
DIMENSIONS 100 100 1
SPACING 1 1 1
ORIGIN 0 0 0
POINT_DATA 10000
FIELD FieldData 6
feature_1 1 10000 float
0 0 0 0 0 0 0 0 0 
0 0 0 0 0 0 0 0 0 
0 0 0 0 0 0 0 0 0 
0 0 0 0 0 0 0 0 0 
0 0 0 0 0 0 0 0 0 
0 0 0 0 0 0 0 0 0 
0 0 0 0 0 0 0 0 0 
0 0 0 0 0 0 0 0 0 
0 0 0 0 0 0 0 0 0 
0 0 0 0 0 0 0 0 0 
0 0 0 0 0 0 0 0 0 
0 0 0 0 0 0 0 0 0 
0 0 0 0 0 0 0 0 0 
0 0 0 0 0 0 0 0 0 
0 0 0 0 0 0 0 0 0 
0 0 0 0 0 0 0 0 0 
0 0 0 0 0 0 0 0 0 
0 0 0 0 0 0 0 0 0 
0 0 0 0 0 0 0 0 0 
0 0 0 0 0 0 0 0 0 
0 0 0 0 0 0 0 0 0 
0 0 0 0 0 0 0 0 0 
0 0 0 0 0 0 0 0 0 
0 0 0 0 0 0 0 0 0 
0 0 0 0 0 0 0 0 0 
0 0 0 0 0 0 0 0 0 
0 0 0 0 0 0 0 0 0 
0 0 0 0 0 0 0 0 0 
0 0 0 0 0 0 0 0 0 
0 0 0 0 0 0 0 0 0 
0 0 0 0 0 0 0 0 0 
0 0 0 0 0 0 0 0 0 
0 0 0 0 0 0 0 0 0 
0 0 0 0 0 0 0 0 0 
0 0 0 0 0 0 0 0 0 
0 0 0 0 0 0 0 0 0 
0 0 0 0 0 0 0 0 0 
0 0 0 0 0 0 0 0 0 
0 0 0 0 0 0 0 0 0 
0 0 0 0 0 0 0 0 0 
0 0 0 0 0 0 0 0 0 
0 0 0 0 0 0 0 0 0 
0 0 0 0 0 0 0 0 0 
0 0 0 0 0 0 0 0 0 
0 0 0 0 0 0 0 0 0 
0 0 0 0 0 0 0 0 0 
0 0 0 0 0 0 0 0 0 
0 0 0 0 0 0 0 0 0 
0 0 0 0 0 0 0 0 0 
0 0 0 0 0 0 0 0 0 
0 0 0 0 0 0 0 0 0 
0 0 0 0 0 0 0 0 0 
0 0 0 0 0 0 0 0 0 
0 0 0 0 0 0 0 0 0 
0 0 0 0 0 0 0 0 0 
0 0 0 0 0 0 0 0 0 
0 0 0 0 0 0 0 0 0 
0 0 0 0 0 0 0 0 0 
0 0 0 0 0 0 0 0 0 
0 0 0 0 0 0 0 0 0 
0 0 0 0 0 0 0 2.60638e-11 0 
0 0 0 0 0 0 0 0 0 
0 0 0 0 0 0 0 0 0 
0 0 0 0 0 0 0 0 0 
0 0 0 0 0 0 0 0 0 
0 0 0 0 0 0 0 0 0 
0 0 0 0 0 0 0 0 0 
0 0 0 0 0 0 0 0 0 
0 0 0 0 0 0 0 0 0 
0 0 0 0 0 0 0 0 0 
0 0 0 0 0 0 0 0 0 
0 0 0 0 0 0 0 0 0 
0 0 0 0 0 0 0 0 0 
0 0 0 0 0 0 0 0 0 
0 0 0 0 0 0 0 0 0 
0 0 0 0 0 0 0 0 0 
0 0 0 0 0 0 0 0 0 
0 0 0 0 0 0 0 0 0 
0 0 0 0 0 0 0 0 0 
0 0 0 0 0 0 0 0 0 
0 0 0 0 0 0 0 0 0 
0 0 0 0 0 0 0 0 0 
0 0 0 0 0 0 0 0 0 
0 0 0 0 0 0 0 0 0 
0 0 0 0 0 0 0 0 0 
0 0 0 0 0 0 0 0 0 
0 0 0 0 0 0 0 0 0 
0 0 0 0 0 0 0 0 0 
0 0 0 0 0 0 0 0 0 
0 0 0 0 0 0 0 0 0 
0 0 0 0 0 0 0 0 0 
0 0 0 0 0 0 0 0 0 
0 0 0 0 0 0 0 0 0 
0 0 0 0 0 0 0 0 0 
0 0 0 0 0 0 0 0 0 
0 0 0 0 0 0 0 0 0 
0 0 0 0 0 0 0 0 0 
0 0 0 0 0 0 0 0 0 
0 0 0 0 0 0 0 0 0 
0 0 0 0 0 0 0 0 0 
0 0 0 0 0 0 0 0 0 
0 0 0 0 0 0 0 0 0 
0 0 0 0 0 0 0 0 0 
0 0 0 0 0 0 0 0 0 
0 0 0 0 0 0 0 0 0 
0 0 0 0 0 0 0 0 0 
0 0 0 0 0 0 0 0 0 
0 0 0 0 0 0 0 0 0 
0 0 0 0 0 0 0 0 0 
0 0 0 0 0 0 0 0 0 
0 0 0 0 0 0 0 0 0 
0 0 0 0 0 0 0 0 0 
0 0 0 0 0 0 0 0 0 
0 0 0 0 0 0 0 0 0 
0 0 0 0 0 0 0 0 0 
0 0 0 0 0 0 0 0 0 
0 1.63206e-09 0 0 0 1.4464e-11 0 0 0 
0 0 0 0 0 0 0 2.28104e-09 4.60934e-10 
0 0 0 0 0 0 0 0 0 
0 0 0 0 0 0 0 0 0 
0 0 0 0 0 0 0 0 0 
0 0 0 0 0 0 0 0 0 
0 0 0 0 0 0 0 0 0 
0 0 0 0 0 0 0 0 0 
0 0 0 0 0 0 0 0 0 
0 0 0 0 0 0 0 0 0 
0 0 0 0 0 0 0 0 1.12581e-09 
0 0 0 0 0 0 0 0 0 
0 0 0 0 0 0 0 0 0 
0 0 0 0 0 0 0 0 0 
0 0 0 0 0 0 0 0 0 
0 0 0 0 0 0 0 0 0 
0 0 0 0 0 0 0 0 0 
0 0 0 0 0 0 0 0 0 
0 0 0 0 0 0 0 0 0 
0 0 0 0 0 0 0 0 0 
0 0 0 0 0 0 0 0 0 
0 0 0 0 0 0 0 0 0 
0 0 0 7.92536e-07 5.90954e-09 2.64616e-09 0 1.12157e-09 0 
0 0 0 0 0 0 2.01117e-09 1.14338e-09 6.44936e-07 
1.64441e-09 0 0 0 0 0 0 0 0 
0 0 0 0 0 0 0 0 0 
0 0 0 0 0 0 0 0 0 
0 0 0 0 0 0 0 0 0 
0 0 0 0 0 0 0 0 0 
0 0 0 0 0 0 0 0 0 
0 0 0 0 0 0 0 0 0 
0 0 0 0 4.91599e-10 0 0 0 0 
0 0 0 1.37306e-09 0 0 0 0 0 
3.02039e-09 0 0 8.3321e-07 0 6.58407e-09 0 0 0 
7.30526e-10 0 0 0 0 0 0 0 0 
0 0 1.65308e-09 1.32608e-09 7.69637e-10 0 0 0 0 
0 0 0 0 0 0 0 0 0 
0 1.73983e-09 0 0 0 0 0 0 0 
0 0 0 0 0 0 0 0 0 
0 0 0 0 0 0 0 0 0 
0 0 0 0 0 0 0 0 0 
0 0 0 0 0 0 0 0 0 
0 0 0 0 4.41017e-09 6.46999e-07 0 0 0 
0 0 0 1.7725e-09 0 7.57534e-09 0 0 1.18428e-09 
0 0 0 0 0 0 0 0 1.45611e-09 
0 0 0 0 0 0 0 0 0 
0 0 0 0 0 0 0 0 0 
0 0 0 0 0 0 1.05621e-09 0 0 
6.46379e-07 1.3677e-09 0 9.04623e-10 0 0 0 0 0 
0 0 0 2.04765e-12 0 0 0 0 0 
0 0 0 0 0 0 0 0 0 
0 0 0 0 0 0 0 0 0 
0 0 0 0 0 0 0 0 0 
0 0 0 0 0 0 0 0 0 
0 0 0 0 1.10183e-09 3.86738e-09 0 4.33023e-09 2.65655e-09 
0 0 0 0 0 0 7.98627e-07 0 0 
9.84946e-10 0 0 0 0 0 0 0 0 
0 0 1.50876e-09 0 0 0 0 0 0 
0 0 0 0 8.12171e-10 0 0 0 0 
0 0 0 0 4.38725e-10 0 0 0 0 
0 0 0 0 0 0 0 0 0 
0 0 0 0 0 0 0 0 0 
0 0 0 0 0 0 0 0 0 
0 0 0 0 0 0 0 0 0 
0 0 0 0 0 0 1.96588e-09 0 0 
7.81832e-10 0 0 3.78071e-10 0 0 2.42324e-09 0 0 
0 0 8.30843e-10 0 0 7.41794e-07 1.21095e-08 0 0 
0 0 6.89619e-07 0 9.16825e-10 9.03583e-10 0 0 0 
0 0 0 0 1.57516e-09 0 1.89344e-09 0 1.28731e-09 
0 2.04608e-09 0 0 0 0 0 0 0 
0 0 0 4.15572e-10 0 0 0 0 0 
0 0 0 0 0 0 0 0 0 
0 0 0 0 0 0 0 0 0 
0 0 0 0 0 0 0 0 0 
0 0 0 0 0 0 0 0 0 
0 0 0 0 0 0 1.17355e-09 5.03873e-09 0 
2.00304e-09 0 0 0 0 0 0 0 2.05957e-09 
1.70638e-09 0 0 0 1.29207e-09 1.65697e-09 0 0 2.19749e-09 
0 0 0 0 0 0 5.58679e-10 0 0 
0 0 0 0 0 0 0 7.18975e-07 0 
7.19219e-07 7.84491e-09 0 0 0 0 0 0 6.67471e-07 
0 0 0 0 0 0 0 0 0 
0 0 0 0 0 0 0 0 0 
0 0 0 0 0 0 0 0 0 
0 0 0 0 0 0 0 0 0 
0 0 0 0 0 0 0 0 0 
0 0 0 0 0 3.49336e-09 0 1.47377e-09 0 
0 0 0 0 0 0 0 0 1.81953e-09 
0 0 0 0 0 0 0 0 0 
0 0 0 0 0 0 1.67832e-09 0 0 
0 0 0 0 0 0 0 0 0 
0 0 2.2215e-09 0 0 0 0 1.02331e-09 0 
0 0 2.12378e-09 2.01027e-09 1.38369e-09 0 0 0 0 
0 0 0 0 0 0 0 0 0 
0 0 0 0 0 0 0 0 0 
0 0 0 0 0 0 0 0 0 
0 0 0 0 0 0 0 0 0 
0 0 0 0 0 0 0 1.69183e-09 1.68672e-09 
3.75784e-09 6.49569e-07 0 0 0 0 0 0 0 
0 0 0 0 6.5e-07 0 0 0 0 
0 8.98322e-07 9.15304e-07 0 1.93044e-09 7.20317e-07 0 0 0 
0 0 0 0 0 0 0 1.97577e-09 0 
0 1.47638e-09 0 0 0 1.37457e-09 0 1.71873e-09 0 
1.79523e-09 0 8.08314e-10 1.38204e-09 1.17715e-09 0 0 0 0 
0 0 0 0 0 0 0 0 0 
0 0 0 0 0 0 0 0 0 
0 0 0 0 0 0 0 0 0 
0 0 0 0 0 0 0 0 0 
0 0 0 6.58121e-10 1.90724e-09 4.20999e-09 6.47058e-07 5.31092e-09 0 
0 2.65414e-09 3.69245e-09 0 0 0 0 0 0 
0 0 0 0 0 0 0 0 1.51404e-09 
0 0 0 0 0 0 1.72763e-09 0 1.15903e-09 
0 0 1.0518e-09 0 0 0 0 0 0 
0 0 0 0 0 0 1.05113e-10 0 0 
0 6.68644e-07 9.05131e-10 0 0 0 0 0 0 
0 0 0 0 0 0 0 1.66896e-09 0 
0 0 0 0 0 0 0 0 0 
0 0 0 0 0 0 0 0 0 
0 0 0 0 0 0 0 0 0 
0 0 0 0 0 1.07668e-09 0 0 5.17231e-09 
2.11253e-09 0 1.50429e-09 0 1.657e-09 0 0 0 0 
0 6.99254e-10 0 0 0 0 0 0 0 
1.3422e-09 0 0 0 0 0 0 2.91252e-09 0 
1.51907e-09 0 0 0 0 0 0 0 0 
0 0 7.18639e-10 0 0 1.82445e-09 1.76855e-10 0 0 
0 0 0 0 6.77149e-10 0 0 0 1.95951e-09 
0 0 0 0 0 0 1.19341e-09 5.00667e-09 0 
0 0 0 0 0 0 0 0 0 
0 0 0 0 0 0 0 0 0 
0 0 0 0 0 0 0 0 0 
0 0 0 0 0 0 0 0 0 
0 0 0 0 0 0 0 0 0 
0 0 0 3.27948e-11 0 0 0 0 0 
0 0 0 0 0 1.99449e-09 0 0 2.75733e-10 
0 5.0301e-10 0 0 0 0 0 0 0 
0 0 0 0 0 0 0 4.35437e-09 0 
0 0 0 0 0 1.60223e-09 0 0 0 
0 0 0 0 0 0 0 0 0 
7.18955e-07 0 1.80568e-09 1.51457e-09 0 0 0 0 0 
0 0 0 0 0 0 0 0 0 
0 0 0 0 0 0 0 0 0 
0 0 0 0 0 1.41765e-09 0 0 0 
0 0 0 0 0 0 0 1.68847e-09 0 
0 0 7.13679e-10 2.15177e-10 0 0 8.78785e-10 0 0 
2.12657e-10 0 0 0 1.70235e-09 0 0 8.76653e-07 8.73899e-07 
0 0 0 0 0 0 0 0 5.69918e-10 
0 0 0 0 0 0 0 0 6.46639e-07 
0 0 0 2.43109e-10 0 0 0 0 0 
0 6.54896e-07 0 0 0 0 0 0 2.89528e-09 
5.88472e-09 0 0 0 0 0 0 0 0 
0 0 0 0 0 0 0 0 0 
0 0 0 0 0 0 0 0 0 
6.61094e-10 0 0 0 0 0 0 9.76669e-10 0 
0 0 0 0 0 0 0 0 0 
1.07606e-09 0 0 0 0 7.21838e-10 0 0 0 
0 0 0 0 0 1.75567e-09 0 0 3.39342e-09 
0 0 2.13746e-09 1.14621e-10 0 0 6.45993e-07 1.92397e-09 0 
9.68088e-10 0 0 0 0 0 0 2.83339e-09 0 
0 0 0 0 0 0 4.58833e-09 0 0 
0 0 1.2824e-09 8.30049e-11 4.00784e-09 0 1.06992e-09 0 1.2207e-09 
1.70872e-09 0 7.25747e-07 0 0 0 0 0 0 
0 0 0 0 0 0 0 0 0 
0 0 0 0 0 0 0 0 0 
0 0 0 9.41456e-10 1.04275e-09 2.5627e-10 0 0 0 
0 0 0 0 0 0 0 0 0 
0 0 3.04336e-09 0 7.7535e-10 0 9.74305e-10 1.08348e-10 0 
0 0 0 0 0 0 0 1.93798e-09 0 
4.3654e-09 0 0 0 2.33281e-09 0 0 2.64949e-09 8.04868e-10 
0 0 1.25555e-09 0 0 0 0 6.0059e-10 0 
0 0 1.55357e-09 8.61937e-10 0 0 8.90283e-09 6.54774e-07 4.66637e-09 
0 0 0 0 0 0 0 4.43552e-10 0 
0 0 3.79586e-09 0 0 4.17123e-10 0 0 0 
0 0 0 0 0 0 0 0 0 
0 0 0 0 0 0 0 0 0 
0 0 0 0 0 0 0 0 0 
7.18766e-07 0 0 0 0 0 0 0 0 
0 0 4.33144e-09 6.47036e-07 0 0 1.71308e-09 3.72951e-09 6.98882e-07 
0 2.39642e-09 1.57629e-09 0 0 0 0 1.21438e-09 0 
0 0 0 0 1.54187e-09 0 0 0 0 
0 0 0 0 0 0 0 7.22802e-12 5.75995e-10 
0 0 1.06981e-09 0 1.65587e-09 0 0 0 3.01091e-09 
0 0 2.88135e-09 0 0 0 0 1.23543e-09 0 
0 0 0 2.87695e-09 0 0 2.53166e-09 0 0 
0 0 0 0 0 0 0 0 0 
0 0 0 0 0 0 0 0 0 
0 0 0 6.59964e-07 0 0 0 0 7.75626e-07 
0 0 0 0 0 0 0 0 0 
0 0 0 0 0 0 0 0 0 
0 0 7.06218e-07 0 0 4.09153e-09 0 0 0 
0 9.11189e-10 2.87002e-09 9.84046e-12 0 7.27846e-10 0 0 0 
1.25978e-09 0 0 0 0 0 0 0 0 
0 1.11478e-09 0 0 0 0 0 0 0 
0 0 0 0 0 6.5636e-07 0 0 1.43041e-09 
0 4.45936e-10 0 0 4.83818e-10 9.35477e-10 0 1.58957e-09 0 
0 0 0 0 0 0 0 0 0 
0 0 0 0 0 0 0 0 0 
0 0 1.40811e-09 4.0938e-09 0 0 0 0 0 
0 0 3.507e-09 2.36544e-09 0 0 1.17092e-09 0 0 
0 0 0 0 1.07642e-09 0 0 0 0 
1.60505e-09 0 0 0 0 0 2.19917e-09 6.07212e-09 3.6318e-09 
0 5.90095e-09 7.04168e-07 0 0 2.18761e-10 0 0 0 
0 0 0 0 3.76345e-09 2.95989e-09 4.8049e-09 1.61953e-09 0 
0 0 4.68738e-10 0 0 0 1.93499e-09 0 0 
0 0 2.69401e-09 0 0 0 0 0 0 
0 0 0 0 0 6.7335e-07 0 0 0 
2.15334e-10 0 0 0 0 0 0 0 0 
0 0 0 0 0 0 0 0 0 
0 0 0 0 0 0 1.22903e-09 0 7.11595e-07 
9.17503e-09 1.05888e-09 7.43738e-07 4.90834e-09 2.56632e-09 0 0 0 0 
0 9.10863e-10 0 0 0 0 0 0 0 
0 1.11109e-09 1.39702e-09 0 0 0 0 0 0 
0 0 0 7.16605e-09 0 0 0 0 0 
0 0 0 0 1.32789e-09 0 6.59309e-07 4.64515e-09 2.37222e-09 
0 0 0 0 0 0 6.50316e-07 2.27515e-09 1.5994e-09 
0 0 6.86761e-09 3.61043e-09 2.68108e-09 0 0 0 9.39928e-10 
0 0 0 0 0 0 0 0 0 
0 0 0 0 0 0 0 0 0 
0 0 0 0 0 0 0 0 0 
0 0 0 0 0 0 1.99618e-09 2.13107e-09 0 
0 0 0 0 0 5.68963e-10 1.39873e-09 0 2.87504e-09 
0 0 2.79307e-09 1.51018e-09 0 0 0 0 0 
0 0 3.90499e-10 0 0 0 0 0 0 
7.02491e-07 0 0 7.23917e-07 4.60436e-09 0 0 0 0 
0 0 0 0 0 0 0 2.65497e-09 0 
0 0 0 1.68472e-09 1.35146e-09 0 4.49724e-09 0 3.68616e-09 
0 0 4.09337e-09 6.5061e-07 0 0 1.14299e-09 0 1.021e-09 
0 0 0 0 2.02371e-09 0 0 0 0 
0 0 4.73829e-10 0 0 0 0 0 0 
0 0 0 0 0 0 0 0 0 
0 0 0 0 0 0 0 0 5.24267e-10 
0 0 0 0 0 0 2.04789e-09 3.32877e-09 0 
0 8.72024e-07 0 0 0 0 0 0 0 
0 0 0 0 0 0 0 7.20898e-07 0 
5.63835e-09 0 0 0 0 0 0 0 0 
0 0 0 1.26822e-10 1.6037e-09 2.43864e-09 2.21443e-09 3.64063e-09 0 
0 0 0 0 0 0 0 0 0 
0 0 0 0 0 0 0 1.22893e-10 0 
0 0 0 0 0 0 0 6.76006e-07 4.44059e-09 
0 0 0 0 0 0 0 0 0 
0 0 0 0 0 0 0 0 0 
0 0 0 0 0 0 0 0 7.39505e-11 
0 1.37267e-09 1.14402e-09 0 1.59992e-09 0 0 3.05573e-10 0 
3.85994e-09 0 8.85123e-07 0 0 0 0 0 0 
0 0 0 0 0 2.77732e-09 0 5.69589e-09 0 
0 0 3.38564e-09 2.90851e-09 0 0 0 0 1.43431e-09 
0 0 0 0 0 0 0 5.2071e-07 5.86769e-10 
0 3.29417e-09 0 0 0 0 2.3022e-09 3.60459e-09 0 
0 0 1.22216e-09 1.7708e-09 0 0 0 0 0 
0 0 0 0 0 0 1.97276e-09 0 0 
0 0 0 0 0 0 0 0 0 
0 0 0 0 0 0 0 0 5.44547e-11 
0 0 0 0 0 0 0 0 0 
0 0 0 0 0 0 7.78582e-10 0 0 
0 0 0 0 0 5.5415e-09 6.84787e-07 4.61552e-09 0 
0 0 0 0 8.14978e-10 0 0 0 0 
0 0 0 0 0 0 0 0 0 
0 0 0 0 0 0 0 0 5.6327e-09 
0 0 0 0 7.4868e-07 0 8.05017e-07 0 0 
0 0 0 0 0 0 0 0 0 
0 0 0 0 0 3.68719e-09 6.55797e-07 0 0 
0 0 0 0 0 0 0 0 0 
0 0 0 0 0 0 0 0 0 
0 0 0 0 0 0 0 0 0 
0 0 0 0 0 0 0 0 0 
2.38982e-09 1.32254e-09 0 0 0 0 1.51814e-09 4.37235e-09 7.51859e-10 
0 1.66017e-09 0 0 0 0 0 0 0 
8.99418e-07 9.13687e-07 0 4.08282e-09 3.27544e-10 0 0 0 4.63764e-09 
0 0 0 0 0 0 0 0 0 
7.54289e-10 1.36054e-09 1.83128e-09 0 0 0 0 3.6907e-09 0 
1.96467e-09 0 0 0 0 9.78456e-10 8.72728e-10 0 0 
0 0 0 0 0 0 2.20186e-09 2.40837e-09 0 
2.70142e-09 0 0 0 0 0 0 0 0 
0 0 0 0 0 0 0 0 0 
0 0 0 0 0 0 0 0 0 
0 0 0 0 0 0 0 0 0 
0 0 0 2.4513e-09 0 0 0 0 0 
0 9.09268e-10 0 0 0 0 0 0 3.03654e-09 
0 0 0 0 4.40532e-09 0 0 0 3.57896e-09 
0 0 2.11811e-09 0 3.86648e-09 0 0 0 0 
0 2.84001e-09 0 0 0 0 0 0 3.37086e-09 
8.7758e-07 0 0 7.35741e-07 0 1.26329e-09 1.68718e-09 0 0 
0 0 0 0 0 0 0 0 0 
0 0 0 0 0 0 0 0 0 
0 0 0 0 0 0 0 0 0 
0 0 0 0 0 0 0 0 0 
0 0 0 0 0 0 0 0 0 
0 0 0 3.546e-09 7.14328e-07 0 9.24533e-09 0 0 
4.18737e-09 3.37932e-09 0 2.11421e-09 0 0 0 0 1.10896e-09 
0 0 0 0 0 0 0 0 0 
0 7.62204e-07 0 0 0 6.58832e-07 0 1.06031e-09 7.28426e-10 
0 7.99867e-10 0 0 1.63364e-09 0 0 0 0 
8.31993e-07 0 0 0 2.77435e-09 0 0 0 0 
0 0 0 0 0 0 0 0 0 
0 0 0 7.39598e-10 4.50445e-10 0 0 0 0 
0 0 0 0 0 0 0 0 0 
0 0 0 0 0 0 0 0 0 
0 0 0 0 0 0 0 0 0 
0 0 6.99857e-10 0 0 0 0 7.79091e-07 4.54043e-09 
0 0 0 6.54291e-07 0 0 1.61968e-09 4.33203e-10 0 
0 2.04695e-09 0 0 7.12567e-07 0 0 0 0 
0 0 1.00357e-08 0 0 0 4.27302e-09 0 1.31255e-09 
0 0 0 0 0 0 6.10795e-10 0 0 
0 0 1.10364e-09 0 7.48187e-07 7.03717e-09 0 0 0 
0 0 0 0 0 0 0 0 0 
0 0 0 0 0 0 0 0 0 
0 0 0 0 0 0 0 0 0 
0 0 0 0 0 0 0 0 0 
0 0 0 0 0 0 0 0 0 
0 0 0 0 0 0 0 0 5.39062e-09 
3.51787e-09 0 0 4.00044e-09 4.53283e-09 0 1.5949e-09 0 0 
0 0 0 0 0 0 0 1.10185e-09 8.50184e-09 
0 8.81111e-07 0 8.21318e-07 2.52227e-09 4.03559e-09 0 0 3.71029e-09 
0 0 0 0 0 0 0 0 0 
0 0 2.25853e-09 0 0 0 0 0 0 
4.9264e-10 0 0 0 0 0 0 0 0 
0 0 0 0 0 0 0 0 0 
0 0 0 0 0 0 0 0 0 
0 0 0 0 0 0 0 0 0 
0 0 0 0 0 0 8.09781e-10 0 0 
0 0 0 0 0 0 1.68933e-09 2.43084e-09 1.03035e-08 
7.33413e-07 0 0 1.38796e-09 0 0 0 1.44711e-09 0 
0 0 0 0 0 0 0 9.00034e-09 0 
0 8.59968e-07 0 0 0 0 0 0 0 
0 0 0 0 0 6.6758e-07 0 3.51614e-09 0 
0 1.45483e-09 0 0 4.22671e-09 0 0 0 0 
0 0 0 0 0 0 0 0 0 
0 0 5.63681e-10 0 0 0 0 0 0 
0 0 0 0 0 0 0 0 0 
0 0 0 0 0 0 0 0 0 
0 0 0 0 0 0 0 6.44183e-07 0 
0 0 0 0 0 0 0 0 0 
0 0 2.07061e-09 0 2.11807e-09 0 2.51382e-09 1.5753e-09 0 
0 0 0 6.38739e-10 0 0 0 0 0 
7.54717e-07 0 0 0 0 0 0 0 0 
0 0 0 1.24712e-09 0 0 5.13709e-09 0 3.03713e-09 
0 0 0 0 0 0 2.39955e-09 0 9.59564e-10 
1.09706e-09 0 0 0 0 0 0 0 0 
0 0 0 0 0 0 0 0 0 
4.39203e-10 0 0 0 0 0 0 0 6.0805e-12 
0 0 0 0 0 0 0 0 0 
0 0 0 0 0 0 2.34905e-09 2.05065e-09 0 
0 0 0 0 0 0 0 0 0 
0 3.06708e-09 0 0 0 0 0 0 0 
0 0 0 0 5.77033e-10 0 0 3.22091e-09 0 
0 0 0 0 0 0 7.10762e-10 9.55017e-10 0 
0 0 0 0 0 0 0 0 0 
4.80647e-09 0 0 8.46135e-07 0 8.42017e-07 8.86116e-09 0 6.70754e-10 
0 0 0 0 0 0 0 0 0 
0 0 0 0 3.55144e-09 0 0 0 0 
2.2726e-09 1.18054e-09 0 0 0 0 0 0 0 
0 0 0 0 0 0 0 0 0 
0 0 0 0 0 0 0 0 0 
0 0 0 0 1.41152e-09 3.15343e-09 0 0 0 
0 0 0 0 0 0 0 0 0 
0 0 0 0 1.9341e-10 0 0 0 0 
1.60923e-09 0 5.21652e-09 0 0 4.05296e-09 0 0 0 
0 0 0 0 6.39346e-10 0 0 0 0 
6.76073e-07 3.00997e-09 0 0 0 8.80263e-07 0 3.68509e-09 2.60959e-09 
0 0 2.2664e-10 0 0 0 0 0 0 
3.84954e-10 0 1.33651e-09 0 4.43833e-09 0 0 0 7.1722e-07 
2.29069e-09 0 0 0 0 0 0 0 0 
0 0 0 0 0 0 0 0 0 
0 0 0 0 0 0 1.38284e-10 0 0 
0 0 8.8741e-10 0 0 0 0 6.44148e-07 0 
0 1.39783e-09 0 0 0 0 0 0 0 
0 0 0 0 6.48381e-07 0 0 0 0 
0 0 0 0 9.07107e-07 8.9353e-07 0 0 0 
0 0 0 0 0 0 0 0 0 
2.43689e-09 8.71244e-09 0 0 0 1.36419e-09 0 0 1.78431e-09 
0 0 0 3.11239e-10 0 0 0 0 0 
1.52526e-09 0 0 0 0 1.24046e-08 7.00034e-07 0 0 
0 0 0 0 0 0 0 0 0 
0 0 0 0 0 0 0 0 0 
0 0 0 0 0 0 0 0 0 
0 0 0 0 0 0 0 1.40728e-09 1.76339e-09 
0 0 0 0 0 0 0 0 0 
1.60513e-10 0 0 0 3.06644e-09 0 0 2.36547e-09 0 
0 0 0 0 0 1.13401e-08 0 0 0 
0 0 0 0 0 0 0 0 0 
0 0 0 0 0 0 0 0 0 
0 0 0 0 0 0 0 0 0 
0 0 1.56386e-09 0 0 0 0 2.18003e-09 0 
5.09668e-09 0 7.11529e-07 0 0 0 0 0 0 
0 0 0 0 0 0 0 0 0 
0 0 0 0 0 0 0 0 0 
3.36646e-10 4.16315e-10 0 0 8.66028e-10 0 0 0 0 
1.2304e-09 0 0 0 0 0 0 0 0 
0 0 0 0 0 2.48364e-09 0 0 5.92593e-10 
0 0 0 0 1.07969e-09 0 0 0 3.57838e-09 
1.46176e-10 0 0 0 0 0 0 0 0 
0 0 0 0 0 0 1.75941e-09 0 2.94914e-09 
2.61034e-09 0 0 0 0 0 0 0 0 
0 0 0 0 0 0 6.87709e-07 1.19757e-09 1.42642e-09 
0 0 3.3718e-09 2.33923e-09 0 0 0 0 0 
0 0 0 0 0 0 0 0 0 
0 0 0 0 0 0 0 0 0 
0 0 0 0 0 0 0 0 0 
0 0 0 4.44687e-10 0 0 0 0 0 
0 0 0 8.76917e-10 0 0 0 1.95908e-09 1.26761e-09 
0 0 0 0 1.99129e-09 8.57304e-09 6.77726e-07 0 0 
1.52728e-09 0 8.36838e-10 0 0 0 0 0 0 
0 0 0 0 0 0 9.47805e-10 0 0 
0 0 0 0 0 0 4.03103e-09 3.14071e-09 0 
0 0 0 6.54375e-07 0 1.99535e-09 6.84196e-10 0 0 
3.67245e-09 0 0 0 0 2.48856e-09 0 0 0 
0 0 0 0 0 0 0 0 0 
0 0 0 0 0 0 0 0 0 
0 0 0 1.54002e-09 0 2.02915e-09 0 0 0 
1.31224e-09 0 0 0 0 0 0 0 0 
0 0 0 0 0 0 6.48079e-07 0 0 
0 0 0 0 0 0 0 0 3.51275e-09 
0 0 1.09944e-09 0 0 0 0 0 0 
0 0 0 0 0 0 0 0 0 
0 0 0 0 0 2.57236e-09 6.20727e-09 6.49557e-07 0 
0 0 0 0 8.41098e-09 3.91219e-09 0 0 0 
0 1.60187e-09 0 0 0 0 0 1.08646e-09 1.47968e-09 
0 4.11537e-10 0 0 0 0 0 0 0 
0 0 0 0 0 0 0 0 0 
0 0 0 0 0 8.12796e-10 6.44459e-07 4.72592e-09 3.62864e-09 
0 0 0 0 0 0 0 0 0 
0 0 0 0 0 8.70767e-10 1.74203e-09 0 0 
0 0 0 0 0 0 9.18316e-10 1.24636e-09 0 
2.65313e-09 0 0 0 0 0 0 6.7771e-07 0 
0 9.2308e-10 0 0 0 0 0 0 0 
0 0 0 0 4.12457e-09 0 0 2.90462e-09 0 
0 0 0 8.32001e-10 0 0 0 0 0 
0 0 0 3.69103e-09 0 0 0 6.60506e-07 0 
0 0 5.69612e-10 0 0 0 0 0 0 
0 0 0 0 0 0 0 0 0 
0 0 0 0 1.10567e-09 0 0 0 2.38758e-09 
0 0 0 0 0 0 0 0 0 
0 6.79657e-10 0 0 0 0 0 0 5.17919e-10 
0 7.55288e-10 0 0 0 0 0 0 3.36679e-10 
0 0 0 0 3.37617e-10 0 2.61657e-09 0 0 
0 0 0 0 0 0 0 0 0 
0 0 0 0 0 6.48663e-07 4.38901e-09 4.42025e-09 0 
0 0 0 0 0 1.11268e-09 0 0 0 
3.39817e-09 0 6.57261e-07 3.1143e-09 0 1.7783e-09 0 1.79819e-09 0 
0 0 0 0 0 0 0 0 0 
0 0 0 0 0 0 0 0 0 
0 0 0 0 0 0 0 0 0 
1.54613e-09 4.67212e-10 0 0 0 0 0 0 0 
0 0 0 0 6.5173e-10 0 0 0 0 
0 0 1.19226e-09 0 0 0 0 7.40153e-10 0 
0 0 0 1.52641e-09 0 0 0 9.36055e-10 3.81662e-09 
0 0 0 9.85872e-07 9.13949e-07 0 0 4.03983e-10 0 
0 0 0 0 0 0 0 0 0 
9.10021e-10 8.61212e-10 0 0 0 0 6.9785e-10 0 0 
0 0 0 0 0 0 0 0 0 
0 0 0 0 0 0 0 0 0 
0 0 0 0 0 0 0 0 0 
0 0 0 0 0 0 0 0 0 
1.3282e-09 0 0 0 0 0 0 0 0 
0 0 0 0 0 0 1.16747e-09 1.25215e-09 0 
0 0 0 0 0 0 0 4.22758e-10 0 
0 0 0 0 0 0 0 0 0 
0 0 0 8.31335e-07 0 0 6.69773e-09 0 0 
4.89373e-10 5.02362e-10 0 0 0 0 0 7.13927e-10 9.71782e-10 
0 0 0 0 0 0 0 0 0 
2.95695e-09 7.71509e-10 1.82854e-09 0 0 0 1.11618e-09 0 0 
0 0 1.84534e-09 0 0 0 0 0 0 
0 0 0 0 0 0 0 0 0 
0 0 0 0 0 0 0 0 5.76115e-10 
0 0 0 0 0 0 0 0 0 
0 0 0 0 0 0 1.963e-09 0 0 
0 0 5.59591e-10 0 0 0 4.25676e-09 6.47296e-07 0 
0 0 0 0 1.67044e-09 0 0 0 0 
6.70652e-07 0 3.35946e-09 0 0 0 0 0 0 
0 0 0 0 0 0 0 0 0 
0 0 0 0 0 0 0 0 4.55472e-09 
6.66093e-07 0 0 1.47147e-09 1.28272e-09 0 0 0 0 
1.75244e-09 6.56855e-07 0 0 0 0 0 0 0 
0 0 0 0 0 0 0 0 0 
0 0 0 0 0 0 0 0 2.11332e-10 
0 0 0 5.83835e-09 0 0 0 0 0 
0 0 0 0 0 5.92187e-09 6.78989e-07 0 0 
0 0 0 1.32914e-09 0 0 0 3.43935e-09 0 
2.73638e-09 0 0 0 0 0 0 1.86036e-09 0 
0 6.28819e-09 0 0 0 0 0 3.60284e-09 3.33597e-10 
0 5.58224e-10 0 0 0 0 0 0 0 
0 0 0 0 0 0 0 0 0 
0 0 0 2.4879e-09 0 0 0 0 2.18522e-09 
0 1.13358e-08 0 0 0 0 0 0 0 
0 0 0 0 0 0 0 0 0 
0 0 0 0 0 0 0 0 0 
0 0 0 6.44047e-07 0 0 0 0 0 
0 0 0 0 6.7952e-07 0 0 0 5.60356e-09 
0 0 0 4.66374e-10 0 0 0 3.45081e-09 0 
1.91019e-09 2.16097e-09 0 0 0 0 1.03713e-09 1.16165e-09 6.56592e-07 
4.60456e-09 3.48495e-09 0 0 0 0 0 2.02376e-09 0 
0 0 0 0 0 0 8.874e-10 0 0 
0 0 0 0 0 0 0 0 1.68162e-09 
0 0 0 0 0 2.01731e-09 0 0 5.26548e-09 
0 0 2.2689e-09 0 0 0 0 0 0 
0 0 0 0 0 0 0 0 0 
0 0 0 0 0 0 0 0 0 
0 0 0 0 2.20991e-09 0 0 0 1.27795e-09 
0 0 0 0 0 0 0 0 0 
0 1.90473e-09 0 1.64297e-09 0 0 3.76404e-09 0 0 
2.06795e-09 0 0 1.0033e-09 0 0 0 0 0 
1.18653e-09 2.43183e-09 1.25891e-09 0 0 0 0 0 0 
0 0 1.52333e-09 6.68073e-07 4.89954e-09 0 0 8.87724e-10 0 
0 0 0 0 0 0 0 0 0 
0 0 0 0 0 1.57509e-09 0 2.32947e-09 0 
6.52381e-07 0 0 0 2.30607e-09 1.09957e-09 0 0 0 
0 0 0 0 0 0 0 0 0 
0 0 0 0 0 0 0 0 0 
0 0 0 1.07107e-09 0 0 0 0 8.74341e-10 
0 0 0 2.72477e-09 0 0 0 0 1.98171e-09 
2.30887e-09 2.53622e-09 7.37898e-07 3.59021e-09 0 0 0 6.6323e-07 2.43303e-09 
0 0 0 6.12599e-10 0 2.79016e-09 0 0 0 
7.64107e-10 2.03197e-09 0 2.13577e-10 0 0 0 0 0 
0 0 0 0 0 0 0 0 6.79811e-10 
0 0 0 0 0 0 0 0 0 
0 0 0 9.83063e-07 1.08419e-06 0 0 0 0 
0 0 0 0 0 0 0 0 0 
0 0 0 0 0 0 0 0 0 
0 0 0 0 0 0 0 0 0 
0 0 0 0 0 0 0 0 0 
0 5.89603e-10 0 0 0 7.08108e-07 2.16491e-09 0 1.84814e-09 
0 0 4.01408e-09 1.03565e-09 0 0 0 0 2.29169e-09 
2.18224e-09 0 0 0 0 6.71905e-07 2.06363e-09 1.21672e-09 1.59645e-09 
0 0 0 0 0 0 0 0 0 
5.62932e-10 0 0 0 0 0 3.94054e-09 0 5.53788e-10 
0 0 0 0 0 0 0 0 0 
0 0 0 0 0 9.49493e-07 0 0 3.96349e-09 
1.77284e-09 0 0 0 0 5.29526e-10 0 0 7.66669e-07 
0 0 1.57469e-09 0 0 0 0 0 0 
0 0 0 0 0 0 0 0 0 
0 0 0 0 0 0 0 0 0 
0 0 0 0 0 0 1.46227e-09 0 1.23926e-09 
0 0 0 0 7.43749e-07 0 2.29571e-09 0 3.08662e-09 
0 0 0 4.05778e-09 0 0 0 0 0 
2.13901e-09 0 9.72818e-11 0 0 0 0 0 0 
0 0 0 0 0 0 0 6.80371e-07 0 
0 1.82348e-09 4.58973e-10 0 0 0 0 0 0 
0 0 0 1.14564e-09 0 0 0 0 0 
2.10509e-09 3.46069e-09 0 0 0 0 0 0 0 
0 7.70232e-07 0 0 0 0 0 0 0 
0 0 0 0 0 0 0 0 0 
0 0 0 0 0 0 0 0 0 
0 0 0 0 0 6.60958e-09 6.95892e-07 3.24699e-09 0 
4.18837e-09 0 0 1.93519e-09 0 0 0 0 1.68076e-09 
0 0 3.6437e-09 6.64593e-07 8.06496e-10 9.68966e-10 0 1.74359e-09 0 
0 0 1.20335e-09 0 1.75737e-09 0 1.05561e-09 0 0 
0 0 2.21951e-09 7.63232e-07 8.10068e-09 0 0 0 0 
1.98495e-09 0 7.70436e-09 0 7.8821e-10 0 0 1.09951e-09 1.15818e-09 
0 0 1.17449e-09 0 0 0 0 4.43191e-09 1.28474e-09 
0 6.68413e-07 3.85406e-09 1.89697e-09 0 8.97557e-10 0 0 0 
0 0 0 3.09831e-09 0 0 0 0 0 
0 0 0 0 0 0 0 0 0 
0 0 0 0 0 0 0 0 0 
0 0 0 0 0 0 2.9587e-09 0 0 
0 0 0 2.72156e-10 0 0 7.86481e-10 0 2.49447e-09 
0 0 0 0 0 1.03378e-08 0 1.73611e-09 0 
6.72209e-07 0 2.51507e-09 0 0 3.09259e-09 0 0 0 
0 0 0 0 0 7.66252e-07 0 1.72583e-09 0 
0 0 0 4.52528e-09 0 0 2.63802e-09 1.34262e-09 0 
0 4.00731e-10 0 0 0 0 0 0 0 
0 2.66123e-09 0 1.43616e-09 0 0 0 0 0 
0 0 0 0 2.73217e-09 0 0 0 0 
0 0 0 0 0 0 0 0 0 
0 0 0 0 0 0 0 0 0 
0 0 0 0 0 0 0 0 0 
0 1.41345e-09 0 0 0 0 0 0 6.74674e-07 
0 0 1.98561e-09 1.98341e-09 1.1514e-09 0 0 4.02251e-09 0 
0 0 0 0 0 0 6.62088e-07 0 0 
0 0 0 1.44694e-09 0 0 0 0 0 
0 0 0 0 0 9.63779e-07 1.72475e-09 0 0 
0 0 2.91106e-09 0 6.55562e-07 0 0 0 0 
0 1.87896e-09 2.64029e-09 0 0 0 0 0 0 
0 0 4.72656e-09 0 0 0 0 8.56368e-10 0 
0 0 0 0 0 0 0 0 0 
0 0 0 0 0 0 0 0 0 
0 0 0 0 0 0 0 0 0 
0 0 0 0 0 0 0 0 0 
0 0 0 0 0 0 0 0 0 
0 8.30984e-10 0 1.36425e-09 0 0 0 0 0 
1.56643e-09 1.05314e-09 0 0 0 0 1.95178e-09 0 0 
0 0 0 0 0 0 0 0 0 
0 0 0 0 0 4.22536e-09 2.61083e-09 0 0 
0 0 0 0 0 0 9.50041e-10 0 0 
3.1964e-09 0 0 5.18959e-09 8.23441e-07 0 0 0 0 
0 0 0 0 0 0 0 0 0 
0 0 0 0 0 0 0 0 0 
0 0 0 0 0 0 0 0 0 
0 1.1229e-09 0 0 0 0 0 5.32605e-10 0 
0 0 0 2.3012e-09 0 0 0 0 0 
0 0 1.83333e-09 0 0 3.5226e-09 2.78902e-09 0 2.52557e-09 
0 1.73148e-09 1.54034e-09 0 0 0 0 0 0 
0 0 0 0 0 0 0 1.00383e-06 9.87326e-09 
0 0 0 0 2.16726e-09 0 0 0 2.70282e-09 
0 5.69277e-10 0 2.40228e-09 0 0 0 0 0 
0 0 3.80407e-09 0 9.829e-07 0 0 0 0 
0 0 0 0 0 0 0 0 0 
0 0 0 0 0 0 0 0 0 
0 0 0 0 0 0 0 0 1.75302e-09 
6.59476e-09 0 1.2539e-09 0 0 0 0 0 6.51338e-07 
4.1977e-09 0 0 1.77629e-09 0 0 2.17452e-09 0 5.56335e-10 
0 0 0 0 0 1.19505e-09 0 6.72083e-07 0 
0 0 0 0 0 0 0 0 0 
6.74236e-10 0 0 0 2.90121e-09 0 0 0 9.42453e-07 
0 0 0 0 7.48183e-07 0 0 0 0 
0 0 0 0 0 0 0 1.73785e-09 0 
0 6.77749e-07 1.342e-09 0 0 9.1932e-07 0 0 0 
1.17804e-09 0 0 0 0 0 0 0 0 
0 0 0 0 0 0 0 0 0 
0 0 0 0 0 0 0 0 0 
0 0 0 6.0644e-10 3.34041e-10 0 1.50714e-09 0 0 
2.86232e-09 2.14749e-09 0 1.42204e-09 0 0 0 0 0 
0 0 0 0 0 0 0 0 9.00091e-10 
0 1.39645e-09 2.44909e-09 0 0 2.43354e-09 0 0 0 
1.25314e-09 0 0 2.06502e-09 0 1.0493e-09 1.49921e-09 0 0 
6.23596e-09 0 0 9.5006e-07 0 1.41194e-09 0 3.91317e-09 0 
0 4.26711e-09 0 1.77024e-09 3.74055e-09 0 6.65686e-07 0 0 
1.74271e-09 0 3.96402e-09 1.36224e-09 3.75413e-09 0 0 0 0 
0 0 4.85472e-10 0 0 0 0 0 0 
0 0 0 0 0 0 0 0 0 
0 0 0 0 0 0 0 0 0 
0 5.22243e-09 6.77214e-07 5.61994e-09 0 7.16298e-10 0 0 0 
0 0 2.9628e-09 0 0 0 7.26633e-10 1.23686e-09 6.52144e-07 
0 1.39895e-09 0 0 0 0 0 0 0 
0 0 6.99898e-09 7.38581e-07 0 3.4002e-09 0 1.84336e-09 0 
0 1.73269e-09 0 1.60091e-09 0 0 0 0 0 
0 0 1.19872e-09 0 9.14372e-07 0 0 4.2532e-09 0 
6.97692e-07 0 0 6.86784e-07 4.82944e-09 0 0 4.74898e-09 3.09481e-09 
0 2.33934e-09 3.9988e-09 0 0 0 0 0 0 
0 5.50518e-10 0 0 0 0 0 0 0 
0 0 0 0 0 0 0 0 0 
0 0 0 0 0 0 2.62091e-10 0 0 
0 0 0 0 0 0 0 0 0 
0 0 0 0 0 0 0 0 0 
1.06474e-09 0 0 0 4.08345e-10 0 0 0 0 
1.18965e-09 0 0 0 0 0 7.67057e-07 0 4.22326e-10 
0 0 0 0 0 0 0 0 0 
0 0 0 0 0 0 0 5.89575e-10 0 
0 0 0 0 4.07078e-09 0 6.16996e-09 0 0 
0 0 0 0 0 5.22437e-09 4.84106e-09 0 0 
0 0 0 0 0 0 0 0 0 
0 0 0 0 0 0 0 0 0 
0 0 0 0 0 0 0 0 0 
0 0 0 0 0 3.19427e-09 0 6.15405e-10 0 
0 4.88376e-10 2.77935e-09 7.72932e-10 0 0 0 0 9.85634e-10 
0 0 0 0 0 0 0 0 0 
0 0 2.1469e-09 1.31497e-09 0 0 0 1.21887e-09 2.81227e-09 
3.0065e-09 0 0 0 6.80056e-07 0 0 0 0 
0 0 1.49262e-09 0 0 0 0 0 0 
0 0 7.17185e-10 0 0 0 0 6.20361e-09 0 
1.02363e-09 0 4.26938e-09 0 0 7.78977e-07 0 0 5.60007e-10 
0 0 0 0 0 0 0 0 0 
0 0 0 0 0 0 0 0 0 
0 0 0 0 0 0 0 0 0 
1.27172e-09 0 0 8.75873e-07 8.93511e-07 0 0 1.00113e-10 0 
0 0 0 6.07992e-09 0 0 0 0 0 
2.19148e-09 0 0 1.77836e-09 0 0 0 0 0 
0 0 0 0 0 0 0 8.78195e-07 1.21969e-09 
0 0 0 0 4.52708e-09 1.73109e-09 0 0 6.75014e-07 
0 1.37649e-09 0 0 6.60831e-07 0 0 0 0 
0 0 0 2.40956e-09 1.53833e-09 0 3.35825e-09 0 0 
0 0 6.84386e-07 0 0 0 0 7.67354e-07 0 
0 0 0 0 0 0 0 0 0 
0 0 0 0 0 0 0 0 0 
0 0 0 0 0 0 0 0 0 
0 1.46998e-09 0 0 0 0 5.62628e-09 0 0 
1.88367e-09 1.32382e-09 0 0 0 6.44786e-07 7.62832e-09 2.91383e-09 9.46214e-10 
0 7.29974e-10 0 1.81864e-09 6.51286e-07 2.63733e-09 1.69898e-09 0 0 
6.84003e-10 0 3.98219e-10 0 0 0 0 0 0 
0 0 0 0 4.89622e-09 0 0 0 8.48829e-10 
0 5.38633e-09 0 0 0 0 0 0 0 
1.63097e-09 0 6.59584e-07 0 0 0 2.2638e-09 1.70021e-10 0 
6.83916e-07 0 0 2.87978e-09 0 1.28191e-09 0 0 0 
0 0 0 0 0 0 0 0 0 
0 0 0 0 0 0 0 0 0 
0 0 0 0 0 0 0 0 0 
0 0 8.71534e-10 9.986e-10 2.0165e-09 0 0 0 0 
0 0 1.28636e-09 4.51415e-10 0 0 0 0 1.77499e-09 
0 0 0 0 0 3.7398e-09 0 0 0 
0 9.39739e-10 0 0 0 0 0 9.92735e-07 1.15627e-06 
1.04972e-06 0 0 1.41214e-09 7.74697e-07 0 0 3.25314e-09 4.28325e-09 
0 0 3.30115e-09 0 0 0 0 0 0 
0 0 2.16648e-09 2.95604e-09 0 3.76625e-10 3.18244e-09 1.1242e-09 0 
1.41321e-09 0 0 0 0 8.54476e-10 0 1.62283e-09 6.54354e-10 
3.1931e-09 0 9.81642e-10 0 0 0 0 0 0 
0 0 0 0 0 0 0 0 0 
0 0 0 0 0 0 0 0 0 
0 0 0 0 0 5.48727e-09 0 0 7.03157e-09 
8.75033e-07 0 0 1.15128e-09 0 0 0 0 0 
0 0 0 0 0 1.13356e-09 1.71066e-09 0 0 
0 0 0 0 0 0 0 0 0 
1.68523e-09 0 0 0 0 0 5.39281e-09 7.35139e-07 0 
0 3.56773e-09 0 0 0 0 0 0 0 
0 3.73872e-10 0 0 0 0 0 0 6.62703e-07 
1.29247e-09 0 0 0 2.84126e-09 1.00079e-09 0 0 0 
0 0 4.0621e-11 0 0 0 0 0 0 
0 0 0 0 0 0 0 0 0 
0 0 0 0 0 0 0 0 0 
0 0 0 0 0 0 0 0 4.34374e-09 
0 8.65189e-07 0 0 0 0 0 1.0489e-09 0 
6.34655e-10 0 0 0 0 0 0 0 8.84611e-10 
0 0 0 0 0 0 0 0 0 
0 2.18964e-09 0 2.06065e-09 0 7.41194e-07 0 0 3.63235e-09 
0 0 0 0 3.53995e-10 0 0 0 0 
0 0 0 0 0 0 0 0 0 
0 0 0 0 0 2.23679e-09 0 0 0 
0 3.65013e-10 0 0 0 0 0 0 0 
0 0 0 0 0 0 0 0 0 
0 0 0 0 0 0 0 0 0 
0 0 0 0 1.2286e-09 0 1.20616e-09 0 0 
0 0 1.78677e-08 0 2.66038e-09 0 0 0 0 
0 0 0 0 0 0 0 0 0 
0 0 0 1.90087e-09 0 0 0 2.23008e-09 0 
4.42105e-09 7.10037e-07 3.15269e-09 0 0 0 7.09936e-09 3.55733e-09 5.35001e-09 
0 0 0 0 8.65091e-07 0 0 0 0 
0 0 0 0 0 0 0 2.95279e-10 0 
1.03347e-09 0 1.62392e-09 0 0 1.82466e-09 2.51809e-09 0 1.11862e-09 
1.25271e-09 4.06118e-10 0 0 0 0 0 0 0 
0 0 0 0 0 0 0 0 0 
0 0 0 0 0 0 0 0 0 
0 0 0 0 0 0 0 0 0 
0 0 1.65672e-09 0 0 0 5.78265e-10 0 0 
0 0 0 0 0 0 0 0 0 
0 0 0 0 0 2.93677e-09 6.46888e-07 5.39516e-09 1.22875e-09 
0 3.77809e-09 0 0 0 1.94706e-09 0 2.50376e-09 0 
0 0 0 0 2.4893e-09 8.6151e-07 0 3.59586e-09 1.58925e-09 
0 0 0 0 0 0 0 0 0 
0 0 0 0 4.01073e-10 7.87385e-10 0 0 2.32238e-09 
0 0 0 0 0 0 0 0 0 
0 0 0 0 0 0 0 0 0 
0 0 0 0 0 0 0 0 0 
0 0 0 0 0 0 0 4.01423e-09 0 
0 1.59077e-09 0 9.86989e-10 0 0 0 0 1.40816e-09 
0 0 0 0 0 0 0 0 0 
0 0 0 0 0 0 0 3.15553e-09 0 
0 0 0 2.11134e-09 0 0 0 0 0 
0 0 0 0 0 0 0 0 0 
0 0 0 0 0 0 0 0 0 
0 0 0 0 0 0 1.47687e-09 0 6.52459e-07 
0 1.82708e-09 0 0 0 0 0 0 0 
0 0 0 0 0 0 0 0 0 
0 0 0 0 0 0 0 0 0 
0 0 0 0 0 0 0 0 6.44249e-07 
0 0 9.7037e-10 0 2.18987e-09 3.50317e-09 0 4.11496e-10 1.05079e-09 
1.06266e-09 0 0 0 0 0 0 0 0 
0 0 0 0 0 0 0 0 7.06892e-10 
0 0 0 0 7.07526e-10 0 0 6.78194e-10 0 
0 0 0 0 0 1.34686e-09 0 5.02663e-09 0 
2.01652e-09 0 0 0 4.18922e-09 0 7.21173e-10 7.01174e-10 0 
0 0 0 0 0 0 0 0 3.63082e-09 
1.87392e-09 0 0 0 0 1.45166e-09 0 0 0 
0 0 0 0 0 0 0 0 0 
0 0 0 0 0 0 0 0 0 
0 0 0 0 0 0 0 0 2.15773e-09 
1.49006e-09 0 3.18068e-10 0 0 0 1.01329e-09 0 0 
0 0 0 0 0 0 0 0 0 
0 0 0 0 1.34128e-09 0 0 0 8.99986e-10 
0 0 0 0 0 8.33742e-10 0 0 0 
0 0 0 0 0 0 0 0 0 
0 0 2.34862e-09 0 1.1213e-09 6.82843e-07 0 3.03573e-09 0 
0 0 0 0 0 0 0 0 0 
0 0 0 0 0 0 0 1.31105e-09 0 
0 0 0 0 0 0 0 0 0 
0 0 0 0 0 0 0 0 0 
0 0 0 0 0 0 0 0 0 
0 2.27585e-09 1.59251e-09 1.24692e-09 0 0 0 3.23558e-09 6.59513e-07 
4.46078e-09 0 0 0 0 0 0 0 0 
4.8414e-10 4.23487e-10 0 0 2.21996e-10 1.06268e-09 0 0 0 
0 0 0 0 0 0 0 3.72882e-10 0 
0 0 0 0 0 0 0 0 1.51221e-09 
0 0 2.79677e-09 7.69978e-10 0 0 0 0 3.25453e-09 
0 0 0 0 0 0 0 0 0 
1.30675e-09 0 0 0 0 1.9069e-09 0 0 0 
0 0 0 0 0 0 0 0 0 
0 0 0 0 0 0 0 0 0 
0 0 0 0 0 0 0 0 0 
0 6.99815e-10 0 0 1.00066e-09 0 0 0 0 
0 0 4.51037e-09 0 6.73103e-07 0 0 1.644e-09 0 
0 0 0 0 0 3.58611e-11 0 9.5456e-10 0 
0 0 0 0 8.6089e-10 0 0 2.69738e-09 0 
0 0 0 0 0 0 0 0 0 
0 6.05375e-10 0 0 0 6.7922e-07 6.53081e-09 0 0 
3.89287e-09 0 0 0 0 0 0 0 0 
0 7.78059e-10 2.03289e-09 0 6.52499e-07 4.19209e-09 0 0 2.58723e-09 
0 1.68616e-09 0 0 0 0 0 0 0 
0 0 0 0 0 0 0 0 0 
0 0 0 0 0 0 0 0 0 
0 0 0 0 0 0 0 0 0 
0 0 0 0 0 0 0 0 0 
0 0 0 0 3.84928e-09 0 0 2.79813e-09 0 
0 0 2.67601e-09 0 0 0 2.60181e-09 6.45424e-07 0 
4.64992e-09 0 0 0 0 0 0 0 0 
6.47048e-07 4.4318e-09 0 1.25461e-09 0 0 0 0 0 
1.47794e-08 6.62956e-07 0 2.14842e-09 0 0 0 0 0 
0 0 1.26105e-09 0 0 0 0 0 0 
0 0 8.56494e-07 0 0 0 0 0 0 
0 0 0 0 0 0 0 0 0 
0 0 0 0 0 0 0 0 0 
0 0 0 0 0 0 0 0 0 
0 0 0 0 0 0 4.76699e-09 0 0 
1.31143e-09 1.69081e-10 0 0 9.72396e-10 0 6.71007e-07 0 3.73064e-09 
0 0 0 0 0 0 2.26755e-09 4.91936e-10 0 
0 0 4.56041e-10 0 0 0 0 0 0 
0 0 1.41361e-09 0 0 0 3.67843e-09 0 0 
0 0 0 2.68819e-09 0 0 0 0 0 
0 0 0 0 0 0 0 0 8.0043e-10 
0 2.86308e-09 0 8.56741e-07 5.10723e-09 0 0 0 0 
0 0 0 0 0 0 0 0 0 
0 0 0 0 0 0 0 0 0 
0 0 0 0 0 0 0 0 1.10924e-09 
0 1.84e-09 0 0 0 7.77818e-09 6.95572e-07 2.7942e-09 2.65667e-09 
9.71554e-10 2.6965e-09 0 0 0 0 0 0 0 
0 0 0 8.1408e-07 0 1.03858e-09 0 1.87841e-09 0 
0 0 5.102e-11 0 0 0 0 0 0 
2.29669e-09 3.28972e-11 0 0 0 0 0 0 0 
5.00875e-10 0 0 0 0 0 1.80897e-10 0 0 
0 0 0 0 0 0 1.91001e-09 0 0 
0 0 0 0 0 0 1.44799e-09 0 3.34269e-10 
0 0 0 0 0 0 0 0 0 
0 0 0 0 0 0 0 0 0 
0 0 0 0 0 0 3.95464e-09 1.11643e-09 4.63951e-09 
0 1.18999e-09 0 2.56909e-09 8.11391e-07 0 0 0 2.92925e-09 
6.77202e-10 0 0 0 0 0 0 0 0 
0 0 7.35692e-07 0 2.18679e-09 7.87446e-07 9.03484e-09 0 0 
1.28209e-09 1.8498e-09 0 0 0 0 0 0 0 