# vtk DataFile Version 5.1
vtk output
ASCII
DATASET STRUCTURED_POINTS
DIMENSIONS 100 100 1
SPACING 1 1 1
ORIGIN 0 0 0
POINT_DATA 10000
FIELD FieldData 6
feature_1 1 10000 float
0 0 0 0 0 0 0 0 0 
0 0 0 0 0 0 0 0 0 
0 0 0 0 0 0 0 0 0 
0 0 0 0 0 0 0 0 0 
0 0 0 0 0 0 0 0 0 
0 0 0 0 0 0 0 0 0 
0 0 0 0 0 0 0 0 0 
0 0 0 0 0 0 0 0 0 
0 0 0 0 0 0 0 0 0 
0 0 0 0 0 0 0 0 0 
0 0 0 0 0 0 0 0 0 
0 0 0 0 0 0 0 0 0 
0 0 0 0 0 0 0 0 0 
0 0 0 0 0 0 0 0 0 
0 0 0 0 0 0 0 0 0 
0 0 0 0 0 0 0 0 0 
0 0 0 0 0 0 0 0 0 
0 0 0 0 0 0 0 0 0 
0 0 0 0 0 0 0 0 0 
0 0 0 0 0 0 0 0 0 
0 0 0 0 0 0 0 0 0 
0 0 0 0 0 0 0 0 0 
0 0 0 0 0 0 0 0 0 
0 0 0 0 0 0 0 0 0 
0 0 0 0 0 0 0 0 0 
0 0 0 0 0 0 0 0 0 
0 0 0 0 0 0 0 0 0 
0 0 0 0 0 0 0 0 0 
0 0 0 0 0 0 0 0 0 
0 0 0 0 0 0 0 0 0 
0 0 0 0 0 0 0 0 0 
0 0 0 0 0 0 0 0 0 
0 0 0 0 0 0 0 0 0 
0 0 0 0 0 0 0 0 0 
0 0 0 0 0 0 0 0 0 
0 0 0 0 0 0 0 0 0 
0 0 0 0 0 0 0 0 0 
0 0 0 0 0 0 0 0 0 
0 0 0 0 0 0 0 0 0 
0 0 0 0 0 0 0 0 0 
0 0 0 0 0 0 0 0 0 
0 0 0 0 0 0 0 0 0 
0 0 0 0 0 0 0 0 0 
0 0 0 0 0 0 0 0 0 
0 0 0 0 0 0 0 0 0 
0 0 0 0 0 0 0 0 0 
0 0 0 0 0 0 0 0 0 
0 0 0 0 0 0 0 0 0 
0 0 0 0 0 0 0 0 0 
0 0 0 0 0 0 0 0 0 
0 0 0 0 0 0 0 0 0 
0 0 0 0 0 0 0 0 0 
0 0 0 0 0 0 0 0 0 
0 0 0 0 0 0 0 0 0 
0 0 0 0 0 0 0 0 0 
0 0 0 0 0 0 0 0 0 
0 0 0 0 0 0 0 0 0 
0 0 0 0 0 0 0 0 0 
0 0 0 0 0 0 0 0 0 
0 0 0 0 0 0 0 0 0 
0 0 0 0 0 0 0 1.49408e-11 0 
0 0 0 0 0 0 0 0 0 
0 1.34943e-12 0 0 0 0 0 0 0 
0 0 0 0 0 0 0 0 0 
0 0 0 0 0 0 0 0 0 
0 0 0 0 0 0 0 0 0 
0 0 0 0 0 0 0 0 0 
0 0 0 0 0 0 0 0 0 
0 0 0 0 0 0 0 0 0 
0 0 0 0 0 0 0 0 0 
0 0 0 0 0 0 0 0 0 
0 0 0 0 0 0 0 0 0 
0 0 0 0 0 0 0 0 0 
0 0 0 0 0 0 0 0 0 
0 0 0 0 0 0 0 0 0 
0 0 0 0 0 0 0 0 0 
0 0 0 0 0 0 0 0 0 
0 0 0 0 0 0 0 0 0 
0 0 0 0 0 0 0 0 0 
0 0 0 0 0 0 0 0 0 
0 0 0 0 0 0 0 0 0 
0 0 0 0 0 0 0 0 0 
0 0 0 0 0 0 0 0 0 
0 0 0 0 0 0 0 0 0 
0 0 0 0 0 0 0 0 0 
0 0 0 0 0 0 0 0 0 
0 0 0 0 0 0 0 0 0 
0 0 0 0 0 0 0 0 0 
0 0 0 0 0 0 0 0 0 
0 0 0 0 0 0 0 0 0 
0 0 0 0 0 0 0 0 0 
0 0 0 0 0 0 0 0 0 
0 0 0 0 0 0 0 0 0 
0 0 0 0 0 0 0 0 0 
0 0 0 0 0 0 0 0 0 
0 0 0 0 0 0 0 0 0 
0 0 0 0 0 0 0 0 0 
0 0 0 0 0 0 0 0 0 
0 0 0 0 0 0 0 0 0 
0 0 0 0 0 0 0 0 0 
0 0 0 0 0 0 0 0 0 
0 0 0 0 0 0 0 0 0 
0 0 0 0 0 0 0 0 0 
0 0 0 0 0 0 0 0 0 
0 0 0 0 0 0 0 0 0 
0 0 0 0 0 0 0 0 0 
0 0 0 0 0 0 0 0 0 
0 0 0 0 0 0 0 0 0 
0 0 0 0 0 0 0 0 0 
0 0 0 0 0 0 0 0 0 
0 0 0 0 0 0 0 0 0 
0 0 0 0 0 0 0 0 0 
0 0 0 1.01787e-11 0 0 0 0 0 
0 0 0 0 0 0 0 0 0 
0 0 0 0 0 0 0 0 0 
0 0 0 0 0 0 0 0 0 
0 1.6007e-09 0 0 0 2.8463e-11 0 0 0 
0 0 0 0 0 0 0 2.30682e-09 4.79156e-10 
0 0 0 0 0 0 0 2.24219e-11 0 
0 0 0 0 0 0 0 0 0 
0 0 0 0 0 0 0 0 0 
0 0 0 0 0 0 0 0 0 
0 0 0 0 0 0 0 0 0 
0 0 0 0 0 0 0 0 0 
0 0 0 0 0 0 0 0 0 
0 0 0 0 0 0 0 0 0 
0 0 0 0 0 0 0 0 1.07375e-09 
0 0 0 0 0 0 0 0 0 
0 0 0 0 0 0 0 0 0 
0 0 0 0 0 0 0 0 0 
0 0 0 0 0 0 0 0 0 
0 0 0 0 0 0 0 0 0 
0 0 0 0 0 0 0 0 0 
0 0 0 0 0 0 0 0 0 
0 0 0 0 0 0 0 0 0 
0 0 0 0 0 0 0 0 0 
0 0 0 0 0 0 0 0 0 
0 0 0 0 0 0 0 0 0 
0 0 0 7.92606e-07 5.95429e-09 2.58715e-09 0 1.05868e-09 0 
0 0 0 0 0 0 1.95848e-09 1.14437e-09 6.4498e-07 
1.73741e-09 0 0 0 0 0 0 0 0 
0 0 0 0 0 0 0 0 0 
0 0 0 0 0 0 0 0 0 
0 0 0 0 0 0 0 0 0 
0 0 0 0 0 0 0 0 0 
0 0 0 0 0 0 0 0 0 
0 0 0 0 0 0 0 0 0 
0 0 0 0 4.56615e-10 0 0 0 0 
0 0 0 1.38245e-09 0 0 0 0 0 
2.97474e-09 0 0 8.33322e-07 0 6.5939e-09 0 0 0 
7.2648e-10 0 0 0 0 0 0 0 0 
0 0 1.6804e-09 1.22251e-09 7.9138e-10 0 0 0 0 
0 0 0 0 0 0 0 0 0 
0 1.67696e-09 0 0 0 0 0 0 0 
0 0 0 0 0 0 0 0 0 
0 0 0 0 0 0 0 0 0 
0 0 0 0 0 0 0 0 0 
0 0 0 0 0 0 0 0 0 
0 0 0 0 4.44174e-09 6.4706e-07 0 0 0 
0 0 0 1.75763e-09 0 7.52305e-09 0 0 1.28173e-09 
0 0 0 0 0 0 0 0 1.51804e-09 
0 0 0 0 0 0 0 0 0 
0 0 0 0 0 0 0 0 0 
0 0 0 0 0 0 1.04116e-09 0 0 
6.46327e-07 1.29199e-09 0 9.1839e-10 0 0 0 0 0 
0 0 0 6.13246e-12 0 0 0 0 0 
0 0 0 0 0 0 0 0 0 
0 0 0 0 0 0 0 0 0 
0 0 0 0 0 0 0 0 0 
0 0 0 0 0 0 0 0 0 
0 0 0 0 1.07386e-09 3.92601e-09 0 4.25442e-09 2.6941e-09 
0 0 0 0 0 0 7.98577e-07 0 0 
9.16779e-10 0 0 0 0 0 0 0 0 
0 0 1.49214e-09 0 0 0 0 0 0 
0 0 0 0 9.38744e-10 0 0 0 0 
0 0 0 0 4.4472e-10 0 0 0 0 
0 0 0 0 0 0 0 0 0 
0 0 0 0 0 0 0 0 0 
0 0 0 0 0 0 0 0 0 
0 0 0 0 0 0 0 0 0 
0 0 0 0 0 0 1.96855e-09 0 0 
7.42421e-10 0 0 2.82316e-10 0 0 2.42164e-09 0 0 
0 0 8.56915e-10 0 0 7.41763e-07 1.20016e-08 0 0 
0 0 6.89712e-07 0 8.63851e-10 9.5667e-10 0 0 0 
0 0 0 0 1.5065e-09 0 1.8533e-09 0 1.31989e-09 
0 2.02661e-09 0 0 0 0 0 0 0 
0 0 0 3.71571e-10 0 0 0 0 0 
0 0 0 0 0 0 0 0 0 
0 0 0 0 0 0 0 0 0 
0 0 0 0 0 0 0 0 0 
0 0 0 0 0 0 0 0 0 
0 0 0 0 0 0 1.26089e-09 5.03744e-09 0 
2.05874e-09 0 0 0 0 0 0 0 2.04454e-09 
1.69854e-09 0 0 0 1.26667e-09 1.64602e-09 0 0 2.21523e-09 
0 0 0 0 0 0 5.62935e-10 0 0 
0 0 0 0 0 0 0 7.19001e-07 0 
7.19125e-07 7.85225e-09 0 0 0 0 0 0 6.67529e-07 
0 0 0 0 0 0 0 0 0 
0 0 0 0 0 0 0 0 0 
0 0 0 0 0 0 0 0 0 
0 0 0 0 0 0 0 0 0 
0 0 0 0 0 0 0 0 0 
0 0 0 0 0 3.58104e-09 0 1.35048e-09 0 
0 0 0 0 0 0 0 0 1.80811e-09 
0 0 0 0 0 0 0 0 0 
0 0 0 0 0 0 1.6856e-09 0 0 
0 0 0 0 0 0 0 0 0 
0 0 2.15551e-09 0 0 0 0 1.0345e-09 0 
0 0 2.10056e-09 1.96225e-09 1.34689e-09 0 0 0 0 
0 0 0 0 0 0 0 0 0 
0 0 0 0 0 0 0 0 0 
0 0 0 0 0 0 0 0 0 
0 0 0 0 0 0 0 0 0 
0 0 0 0 0 0 0 1.77354e-09 1.66703e-09 
3.76202e-09 6.49546e-07 0 0 0 0 0 0 0 
0 0 0 0 6.50073e-07 0 0 0 0 
0 8.98402e-07 9.15261e-07 0 1.82909e-09 7.20288e-07 0 0 0 
0 0 0 0 0 0 0 2.04614e-09 0 
0 1.51893e-09 0 0 0 1.35951e-09 0 1.74953e-09 0 
1.8431e-09 0 7.05758e-10 1.42131e-09 1.21126e-09 0 0 0 0 
0 0 0 0 0 0 0 0 0 
0 0 0 0 0 0 0 0 0 
0 0 0 0 0 0 0 0 0 
0 0 0 0 0 0 0 0 0 
0 0 0 5.94612e-10 1.91802e-09 4.21635e-09 6.47052e-07 5.35775e-09 0 
0 2.61226e-09 3.6248e-09 0 0 0 0 0 1.07762e-10 
0 0 0 0 0 0 0 0 1.44096e-09 
0 0 0 0 0 0 1.69873e-09 0 1.24706e-09 
0 0 1.21575e-09 0 0 0 0 0 0 
0 0 0 0 0 0 9.2018e-11 0 0 
0 6.68619e-07 1.04046e-09 0 0 0 0 0 0 
0 0 0 0 0 0 0 1.69375e-09 0 
0 0 0 0 0 0 0 0 0 
0 0 0 0 0 0 0 0 0 
0 0 0 0 0 0 0 0 0 
0 0 0 0 0 1.13725e-09 0 0 5.12346e-09 
2.0596e-09 0 1.40406e-09 0 1.60681e-09 0 0 0 0 
0 6.67439e-10 0 0 0 0 0 0 0 
1.3687e-09 0 0 0 0 0 0 2.99459e-09 0 
1.48391e-09 0 0 0 0 0 0 0 0 
0 0 6.36404e-10 0 0 1.87638e-09 1.02441e-10 0 0 
0 0 0 0 5.89519e-10 0 0 0 1.83875e-09 
0 0 0 0 0 0 1.20861e-09 5.0045e-09 0 
0 0 0 0 0 0 0 0 0 
0 0 0 0 0 0 0 0 0 
0 0 0 0 0 0 0 0 0 
0 0 0 0 0 0 0 0 0 
0 0 0 0 0 0 0 0 0 
0 0 0 2.83227e-11 0 0 0 0 0 
0 0 0 0 0 2.03685e-09 0 0 2.42779e-10 
0 5.3118e-10 0 0 0 0 0 0 0 
0 0 0 0 0 0 0 4.40639e-09 0 
0 0 0 0 0 1.65196e-09 0 0 0 
0 0 0 0 0 0 0 0 0 
7.19022e-07 0 1.78705e-09 1.49674e-09 0 0 0 0 0 
0 0 0 0 0 0 0 0 0 
0 0 0 0 0 0 0 0 0 
0 0 0 0 0 1.4247e-09 0 0 0 
0 0 0 0 0 0 0 1.64434e-09 0 
0 0 7.43844e-10 2.55163e-10 0 0 7.97075e-10 0 0 
1.72069e-10 0 0 0 1.68451e-09 0 0 8.76647e-07 8.73796e-07 
0 0 0 0 0 0 0 0 5.54242e-10 
0 0 0 0 0 0 0 0 6.46682e-07 
0 0 0 2.7005e-10 0 0 0 0 0 
0 6.54928e-07 0 0 0 0 0 0 2.91084e-09 
5.85315e-09 0 0 0 0 0 0 0 0 
0 0 0 0 0 0 0 0 0 
0 0 0 0 0 0 0 0 0 
6.83085e-10 0 0 0 0 0 0 9.89436e-10 0 
0 0 0 0 0 0 0 0 0 
1.03562e-09 0 0 0 0 7.41607e-10 0 0 0 
0 0 0 0 0 1.78629e-09 0 0 3.3594e-09 
0 0 2.18282e-09 1.82258e-10 0 0 6.46039e-07 1.92617e-09 0 
9.50652e-10 0 0 0 0 0 0 2.82297e-09 0 
0 0 0 0 0 0 4.67136e-09 0 0 
0 0 1.2735e-09 1.74009e-10 3.9574e-09 0 1.11646e-09 0 1.17802e-09 
1.65245e-09 0 7.25734e-07 0 0 0 0 0 0 
0 0 0 0 0 0 0 0 0 
0 0 0 0 0 0 0 0 0 
0 0 0 1.00933e-09 1.08307e-09 2.44889e-10 0 0 0 
0 0 0 0 0 0 0 0 0 
0 0 2.96914e-09 0 7.91303e-10 0 9.15009e-10 7.936e-11 0 
0 0 0 0 0 0 0 1.91685e-09 0 
4.35765e-09 0 0 0 2.47765e-09 0 0 2.5924e-09 7.47057e-10 
0 0 1.1411e-09 0 0 0 0 5.97811e-10 0 
0 0 1.45657e-09 8.71242e-10 0 0 8.85943e-09 6.54775e-07 4.67523e-09 
0 0 0 0 0 0 0 4.92413e-10 0 
0 0 3.78491e-09 0 0 3.61378e-10 0 0 0 
0 0 0 0 0 0 0 0 0 
0 0 0 0 0 0 0 0 0 
0 0 0 0 0 0 0 0 0 
7.18778e-07 0 0 0 0 0 0 0 0 
0 0 4.26803e-09 6.47095e-07 0 0 1.6025e-09 3.70786e-09 6.98849e-07 
0 2.37701e-09 1.49979e-09 0 0 0 0 1.17061e-09 0 
0 0 0 0 1.51765e-09 0 0 0 0 
0 0 0 0 0 0 0 2.26887e-11 6.68626e-10 
0 0 1.07182e-09 0 1.70285e-09 0 0 0 3.104e-09 
0 0 2.86531e-09 0 0 0 0 1.25011e-09 0 
0 0 0 2.84706e-09 0 0 2.51459e-09 0 0 
0 0 0 0 0 0 0 0 0 
0 0 0 0 0 0 0 0 0 
0 0 0 6.59998e-07 0 0 0 0 7.75519e-07 
0 0 0 0 0 0 0 0 0 
0 0 0 0 0 0 0 0 0 
0 0 7.06275e-07 0 0 3.99572e-09 0 0 0 
0 8.49037e-10 2.84553e-09 4.9674e-11 0 6.32651e-10 0 0 0 
1.19414e-09 0 0 0 0 0 0 0 0 
0 1.08233e-09 0 0 0 0 0 0 0 
0 0 0 0 0 6.56262e-07 0 0 1.40603e-09 
0 4.61797e-10 0 0 4.99334e-10 9.44039e-10 0 1.61879e-09 0 
0 0 0 0 0 0 0 0 0 
0 0 0 0 0 0 0 0 0 
0 0 1.37396e-09 4.17636e-09 0 0 0 0 0 
0 0 3.49143e-09 2.30139e-09 0 0 1.10769e-09 0 0 
0 0 0 0 1.08108e-09 0 0 0 0 
1.54182e-09 0 0 0 0 0 2.20564e-09 6.0922e-09 3.63747e-09 
0 5.85669e-09 7.04227e-07 0 0 2.62329e-10 0 0 0 
0 0 0 0 3.85218e-09 2.92533e-09 4.88807e-09 1.64159e-09 0 
0 0 4.45575e-10 0 0 0 2.02269e-09 0 0 
0 0 2.59218e-09 0 0 0 0 0 0 
0 0 0 0 0 6.73292e-07 0 0 0 
2.32272e-10 0 0 0 0 0 0 0 0 
0 0 0 0 0 0 0 0 0 
0 0 0 0 0 0 1.3599e-09 0 7.11489e-07 
9.20781e-09 1.07902e-09 7.43843e-07 4.89066e-09 2.57226e-09 0 0 0 0 
0 7.88781e-10 0 0 0 0 0 0 0 
0 1.1163e-09 1.49036e-09 0 0 0 0 0 0 
0 0 0 7.22637e-09 0 0 0 0 0 
0 0 0 0 1.3333e-09 0 6.59337e-07 4.57098e-09 2.37853e-09 
0 0 0 0 0 0 6.50343e-07 2.2391e-09 1.59752e-09 
0 0 6.75141e-09 3.63598e-09 2.63817e-09 0 0 0 9.91913e-10 
0 0 0 0 0 0 0 0 0 
0 0 0 0 0 0 0 0 0 
0 0 0 0 0 0 0 0 0 
0 0 0 0 0 0 2.09974e-09 2.0597e-09 0 
0 0 0 0 0 5.72025e-10 1.46286e-09 0 2.96448e-09 
0 0 2.76671e-09 1.51077e-09 0 0 0 0 0 
0 0 3.77699e-10 0 0 0 0 0 0 
7.02449e-07 0 0 7.2393e-07 4.75369e-09 0 0 0 0 
0 0 0 0 0 0 0 2.59687e-09 0 
0 0 0 1.81604e-09 1.33807e-09 0 4.48707e-09 0 3.66752e-09 
0 0 4.09492e-09 6.50706e-07 0 0 1.14784e-09 0 1.09999e-09 
0 0 0 0 1.93658e-09 0 0 0 0 
0 0 5.4337e-10 0 0 0 0 0 0 
0 0 0 0 0 0 0 0 0 
0 0 0 0 0 0 0 0 5.89408e-10 
0 0 0 0 0 0 2.16401e-09 3.33289e-09 0 
0 8.7195e-07 0 0 0 0 0 0 0 
0 0 0 0 0 0 0 7.20829e-07 0 
5.58856e-09 0 0 0 0 0 0 0 0 
0 0 0 1.74048e-10 1.66658e-09 2.48109e-09 2.22558e-09 3.65149e-09 0 
0 0 0 0 0 0 0 0 0 
0 0 0 0 0 0 0 9.35086e-11 0 
0 0 0 0 0 0 0 6.7612e-07 4.48556e-09 
0 0 0 0 0 0 0 0 0 
0 0 0 0 0 0 0 0 0 
0 0 0 0 0 0 0 0 9.35432e-11 
0 1.35707e-09 1.21792e-09 0 1.60573e-09 0 0 2.8268e-10 0 
3.92108e-09 0 8.85062e-07 0 0 0 0 0 0 
0 0 0 0 0 2.71499e-09 0 5.71227e-09 0 
0 0 3.36237e-09 2.90734e-09 0 0 0 0 1.3525e-09 
0 0 0 0 0 0 0 5.20799e-07 5.18796e-10 
0 3.19399e-09 0 0 0 0 2.41176e-09 3.57668e-09 0 
0 0 1.23093e-09 1.81502e-09 0 0 0 0 0 
0 0 0 0 0 0 1.92845e-09 0 0 
0 0 0 0 0 0 0 0 0 
0 0 0 0 0 0 0 0 3.6092e-11 
0 0 0 0 0 0 0 0 0 
0 0 0 0 0 0 8.56179e-10 0 0 
0 0 0 0 0 5.53039e-09 6.84796e-07 4.58839e-09 0 
0 0 0 0 8.24503e-10 0 0 0 0 
0 0 0 0 0 0 0 0 0 
0 0 0 0 0 0 0 0 5.68795e-09 
0 0 0 0 7.48663e-07 0 8.05001e-07 0 0 
0 0 0 0 0 0 0 0 0 
0 0 0 0 0 3.74198e-09 6.55875e-07 0 0 
0 0 0 0 0 0 0 0 0 
0 0 0 0 0 0 0 0 0 
0 0 0 0 0 0 0 0 0 
0 0 0 0 0 0 0 0 0 
2.34851e-09 1.39174e-09 0 0 0 0 1.60456e-09 4.37216e-09 8.46909e-10 
0 1.63875e-09 0 0 0 0 0 0 0 
8.9933e-07 9.13658e-07 0 4.13563e-09 3.48103e-10 2.33064e-12 0 0 4.6314e-09 
0 0 0 0 0 0 0 0 0 
8.18593e-10 1.28031e-09 1.91916e-09 0 0 0 0 3.60159e-09 0 
2.01752e-09 0 0 0 0 1.0055e-09 8.25973e-10 0 0 
0 0 0 0 0 0 2.20442e-09 2.43788e-09 0 
2.69665e-09 0 0 0 0 0 0 0 0 
0 0 0 0 0 0 0 0 0 
0 0 0 0 0 0 0 0 0 
0 0 0 0 0 0 0 0 0 
0 0 0 2.42101e-09 0 0 0 0 0 
0 9.06983e-10 0 0 0 0 0 0 2.95044e-09 
0 0 0 0 4.41106e-09 0 0 0 3.56357e-09 
0 0 2.15376e-09 0 3.89443e-09 0 0 0 0 
0 2.6965e-09 0 0 0 0 0 0 3.43677e-09 
8.77689e-07 0 0 7.35693e-07 0 1.35361e-09 1.71226e-09 0 0 
0 0 0 0 0 0 0 0 0 
0 0 0 0 0 0 0 0 0 
0 0 0 0 0 0 0 0 0 
0 0 0 0 0 0 0 0 0 
0 0 0 0 0 0 0 0 0 
0 0 0 3.62585e-09 7.14321e-07 0 9.12613e-09 0 0 
4.2303e-09 3.29523e-09 0 2.08022e-09 0 0 0 0 1.07662e-09 
0 0 0 0 0 0 0 0 0 
0 7.62168e-07 0 0 0 6.58828e-07 0 1.11628e-09 6.53913e-10 
0 7.78768e-10 0 0 1.73949e-09 0 0 0 0 
8.32076e-07 0 0 0 2.85896e-09 0 0 0 0 
0 0 0 0 5.37947e-12 0 0 0 0 
0 0 0 6.74382e-10 5.06758e-10 0 0 0 0 
0 0 0 0 0 0 0 0 0 
0 0 0 0 0 0 0 0 0 
0 0 0 0 0 0 0 0 0 
0 0 6.3483e-10 0 0 0 0 7.79098e-07 4.53772e-09 
0 0 0 6.54327e-07 0 0 1.60839e-09 4.08841e-10 0 
0 1.9979e-09 0 0 7.12583e-07 0 0 0 0 
0 0 1.01086e-08 0 0 0 4.29204e-09 0 1.33753e-09 
0 0 0 0 0 0 6.40487e-10 0 0 
0 0 1.07337e-09 0 7.48267e-07 6.99577e-09 0 0 0 
0 0 0 0 0 0 0 0 0 
0 0 0 0 0 0 0 0 0 
0 0 0 0 0 0 0 0 0 
0 0 0 0 0 0 0 0 0 
0 0 0 0 0 0 0 0 0 
0 0 0 0 0 0 0 0 5.43112e-09 
3.49239e-09 0 0 4.00122e-09 4.51356e-09 0 1.61568e-09 0 0 
0 0 0 0 0 0 0 1.08764e-09 8.51353e-09 
0 8.81067e-07 0 8.21277e-07 2.50661e-09 3.9358e-09 0 0 3.68676e-09 
0 0 0 0 0 0 0 0 0 
0 0 2.29332e-09 0 0 0 0 0 0 
4.32449e-10 0 0 0 0 0 0 0 0 
0 0 0 0 0 0 0 0 0 
0 0 0 0 0 0 0 0 0 
0 0 0 0 0 0 0 0 0 
0 0 0 0 0 0 8.07342e-10 0 0 
0 0 0 0 0 0 1.79543e-09 2.46085e-09 1.02457e-08 
7.33463e-07 0 0 1.31831e-09 0 0 0 1.32857e-09 0 
0 0 0 0 0 0 0 9.01465e-09 0 
0 8.59872e-07 0 0 0 0 0 0 0 
0 0 0 0 0 6.67585e-07 0 3.48082e-09 0 
0 1.50665e-09 0 0 4.08244e-09 0 0 0 0 
0 0 0 0 0 0 0 0 0 
0 0 5.4893e-10 0 0 0 0 0 0 
0 0 0 0 0 0 0 0 0 
0 0 0 0 0 0 0 0 0 
0 0 0 0 0 0 0 6.44172e-07 0 
0 0 0 0 0 0 0 0 0 
0 0 2.16024e-09 0 2.14816e-09 0 2.54962e-09 1.56308e-09 0 
0 0 0 6.70145e-10 0 0 0 0 0 
7.54736e-07 0 0 0 0 0 0 0 0 
0 0 0 1.32558e-09 0 0 5.13633e-09 0 2.98877e-09 
0 0 0 0 0 0 2.32875e-09 0 1.0032e-09 
1.2317e-09 0 0 0 0 0 0 0 0 
0 0 0 0 0 0 0 0 0 
4.92702e-10 0 0 0 0 0 0 0 0 
0 0 0 0 0 0 0 0 0 
0 0 0 0 0 0 2.39383e-09 2.05032e-09 0 
0 0 0 0 0 0 0 0 0 
0 3.10097e-09 0 0 0 0 0 0 0 
0 0 0 0 6.89851e-10 0 0 3.20505e-09 0 
0 0 0 0 0 0 6.50257e-10 9.43782e-10 0 
0 0 0 0 0 0 0 0 0 
4.77446e-09 0 0 8.46214e-07 0 8.42004e-07 8.89001e-09 0 6.71205e-10 
0 0 0 0 0 0 0 0 0 
0 0 0 0 3.50443e-09 0 0 0 0 
2.33178e-09 1.07938e-09 0 0 0 0 0 0 0 
0 0 0 0 0 0 0 0 0 
0 0 0 0 0 0 0 0 0 
0 0 0 0 1.45406e-09 3.15321e-09 0 0 0 
0 0 0 0 0 0 0 0 0 
0 0 0 0 1.56572e-10 0 0 0 0 
1.50457e-09 0 5.22377e-09 0 0 3.99837e-09 0 0 0 
0 0 0 0 6.30387e-10 0 0 0 0 
6.76039e-07 2.99966e-09 0 0 0 8.80313e-07 0 3.82969e-09 2.57003e-09 
0 0 2.43941e-10 0 0 0 0 0 0 
3.85338e-10 0 1.33194e-09 0 4.50907e-09 0 0 0 7.17281e-07 
2.23982e-09 0 0 0 0 0 0 0 0 
0 0 0 0 0 0 0 0 0 
0 0 0 0 0 0 8.88307e-11 0 0 
0 0 8.72596e-10 0 0 0 0 6.44201e-07 0 
0 1.33067e-09 0 0 0 0 0 0 0 
0 0 0 0 6.48275e-07 0 0 0 0 
0 0 0 0 9.07154e-07 8.93584e-07 0 0 0 
0 0 0 0 0 0 0 0 0 
2.53445e-09 8.70413e-09 0 0 0 1.38273e-09 0 0 1.80218e-09 
0 0 0 3.88501e-10 0 0 0 0 0 
1.55185e-09 0 0 0 0 1.23405e-08 7.00025e-07 0 0 
0 0 0 0 0 0 0 0 0 
0 0 0 0 0 0 0 0 0 
0 0 0 0 0 0 0 0 0 
0 0 0 0 0 0 0 1.47985e-09 1.67304e-09 
0 0 0 0 0 0 0 0 0 
1.737e-10 0 0 0 3.09025e-09 0 0 2.407e-09 0 
0 0 0 0 0 1.1416e-08 0 0 0 
0 0 0 0 0 0 0 0 0 
0 0 0 0 0 0 0 0 7.26777e-11 
0 0 0 0 0 0 0 0 0 
0 0 1.73443e-09 0 0 0 0 2.10349e-09 0 
5.09688e-09 0 7.11578e-07 0 0 0 0 0 0 
0 0 0 0 0 0 0 0 0 
0 0 0 0 0 0 0 0 0 
3.11469e-10 4.2946e-10 0 0 8.54091e-10 0 0 0 0 
1.11404e-09 0 0 0 0 0 0 0 0 
0 0 0 0 0 2.4782e-09 0 0 5.6823e-10 
0 0 0 0 1.1206e-09 0 0 0 3.5789e-09 
2.28868e-10 0 0 0 0 0 0 0 0 
0 0 0 0 0 0 1.70491e-09 0 2.9871e-09 
2.56899e-09 0 0 0 0 0 0 0 0 
0 0 0 0 0 0 6.87654e-07 1.18111e-09 1.44838e-09 
0 0 3.43076e-09 2.34223e-09 0 0 0 0 0 
0 0 0 0 0 0 0 0 0 
0 0 0 0 0 0 0 0 0 
0 0 0 0 0 0 0 0 0 
0 0 0 5.41048e-10 0 0 0 0 0 
0 0 0 8.32326e-10 0 0 0 1.96429e-09 1.34447e-09 
0 0 0 0 2.04012e-09 8.63337e-09 6.77773e-07 0 0 
1.5443e-09 0 9.05311e-10 0 0 0 0 0 0 
0 0 0 0 0 0 9.42316e-10 0 0 
0 0 0 0 0 0 4.02417e-09 3.2225e-09 0 
0 0 0 6.54405e-07 0 2.01267e-09 6.6601e-10 0 0 
3.59465e-09 0 0 0 0 2.50692e-09 0 0 0 
0 0 0 0 0 0 0 0 0 
0 0 0 0 0 0 0 0 0 
0 0 0 1.58789e-09 0 2.09176e-09 0 0 0 
1.28482e-09 0 0 0 0 0 0 0 0 
0 0 0 0 0 0 6.48125e-07 0 0 
0 0 0 0 0 0 0 0 3.55065e-09 
0 0 1.11924e-09 0 0 0 0 0 0 
0 0 0 0 0 0 0 0 0 
0 0 0 0 0 2.53196e-09 6.26439e-09 6.49526e-07 0 
0 0 0 0 8.32715e-09 3.89155e-09 0 0 0 
0 1.54226e-09 0 0 0 0 0 1.12012e-09 1.52794e-09 
0 4.46964e-10 0 0 0 0 0 0 0 
0 0 0 0 0 0 0 0 0 
0 0 0 0 0 7.82119e-10 6.44364e-07 4.64584e-09 3.56912e-09 
0 0 0 0 0 0 0 0 0 
0 0 0 0 0 9.86164e-10 1.74498e-09 0 0 
0 0 0 0 0 0 9.28877e-10 1.1627e-09 0 
2.71559e-09 0 0 0 0 0 0 6.77715e-07 0 
0 9.0497e-10 0 0 0 0 0 0 0 
0 0 0 0 4.14331e-09 0 0 2.95491e-09 0 
0 0 0 8.23531e-10 0 0 0 0 0 
0 0 0 3.63367e-09 0 0 0 6.60466e-07 0 
0 0 5.92759e-10 0 0 0 0 0 0 
0 0 0 0 0 0 0 0 0 
0 0 0 0 9.93182e-10 0 0 0 2.41395e-09 
0 0 0 0 0 0 0 0 0 
0 6.83391e-10 0 0 0 0 0 0 6.01189e-10 
0 7.97426e-10 0 0 0 0 0 0 4.11576e-10 
0 0 0 0 2.70196e-10 0 2.52825e-09 0 0 
0 0 0 0 0 0 0 0 0 
0 0 0 0 0 6.48638e-07 4.33337e-09 4.36361e-09 0 
0 0 0 0 0 1.16691e-09 0 0 0 
3.39333e-09 0 6.57347e-07 3.13613e-09 0 1.84901e-09 0 1.81121e-09 0 
0 0 0 0 0 0 0 0 0 
0 0 0 0 0 0 0 0 0 
0 0 0 0 0 0 0 0 0 
1.50623e-09 4.91067e-10 0 0 0 0 0 0 0 
0 0 0 0 5.20261e-10 0 0 0 0 
0 0 1.15881e-09 0 0 0 0 8.49118e-10 0 
0 0 0 1.4936e-09 0 0 0 1.03533e-09 3.79994e-09 
0 0 0 9.85856e-07 9.13959e-07 0 0 4.90985e-10 0 
0 0 0 0 0 0 0 0 0 
9.97756e-10 8.7036e-10 0 0 0 0 7.34687e-10 0 0 
0 0 0 0 0 0 0 0 0 
0 0 0 0 0 0 0 0 0 
0 0 0 0 0 0 0 0 0 
0 0 0 0 0 0 0 0 0 
1.34715e-09 0 0 0 0 0 0 0 0 
0 0 0 0 0 0 1.23992e-09 1.1346e-09 0 
0 0 0 0 0 0 0 3.82402e-10 0 
0 0 0 0 0 0 0 0 0 
0 0 0 8.31384e-07 0 0 6.74584e-09 0 0 
5.61209e-10 5.82382e-10 0 0 0 0 0 7.80483e-10 9.308e-10 
0 0 0 0 0 0 0 0 0 
2.95961e-09 7.45554e-10 1.8191e-09 0 0 0 1.15276e-09 0 0 
0 0 1.91519e-09 0 0 0 0 0 0 
0 0 0 0 0 0 0 0 0 
0 0 0 0 0 0 0 0 5.41712e-10 
0 0 0 0 0 0 0 0 0 
0 0 0 0 0 0 1.97841e-09 0 0 
0 0 5.40557e-10 0 0 0 4.18573e-09 6.47291e-07 0 
0 0 0 0 1.70712e-09 0 0 0 0 
6.7072e-07 0 3.32142e-09 0 0 0 0 0 0 
0 0 0 0 0 0 0 0 0 
0 0 0 0 0 0 0 0 4.58335e-09 
6.66117e-07 2.16081e-12 0 1.51056e-09 1.26552e-09 0 0 0 0 
1.80612e-09 6.56837e-07 0 0 0 0 0 0 0 
0 0 0 0 0 0 0 0 0 
0 0 0 0 0 0 0 0 1.90534e-10 
0 0 0 5.83289e-09 0 0 0 0 0 
0 0 0 0 0 5.81518e-09 6.78892e-07 0 0 
0 0 0 1.2363e-09 0 0 0 3.45527e-09 0 
2.69128e-09 0 0 0 0 0 0 1.77084e-09 0 
0 6.21468e-09 0 0 0 0 0 3.53515e-09 3.24133e-10 
0 6.15969e-10 0 0 0 0 0 0 0 
0 0 0 0 0 0 0 0 0 
0 0 0 2.56902e-09 0 0 0 0 2.18519e-09 
0 1.12276e-08 0 0 0 0 0 0 0 
0 0 0 0 0 0 0 0 0 
0 0 0 0 0 0 0 0 0 
0 0 0 6.44006e-07 0 0 0 0 0 
0 0 0 0 6.79519e-07 0 0 0 5.67206e-09 
0 0 0 5.45748e-10 0 0 0 3.4929e-09 0 
1.92986e-09 2.09912e-09 0 0 0 0 1.02372e-09 1.24212e-09 6.56643e-07 
4.67886e-09 3.4181e-09 0 0 0 0 0 1.98697e-09 0 
0 0 0 0 0 0 9.00331e-10 0 0 
0 0 0 0 0 0 0 0 1.60695e-09 
0 0 0 0 0 2.12285e-09 0 0 5.28294e-09 
0 0 2.28799e-09 0 0 0 0 0 0 
0 0 0 0 0 0 0 0 0 
0 0 0 0 0 0 0 0 0 
0 0 0 0 2.04822e-09 0 0 0 1.24884e-09 
0 0 0 0 0 0 0 0 0 
0 1.93065e-09 0 1.5965e-09 0 0 3.70875e-09 0 0 
2.10609e-09 0 0 9.62935e-10 0 0 0 0 0 
1.21316e-09 2.45304e-09 1.22542e-09 0 0 0 0 0 0 
0 0 1.52022e-09 6.67929e-07 4.81808e-09 0 0 8.15728e-10 0 
0 0 0 0 0 0 0 0 0 
0 0 0 0 0 1.56105e-09 0 2.32202e-09 0 
6.52417e-07 0 0 0 2.25271e-09 1.15881e-09 0 0 0 
0 0 0 0 0 0 0 0 0 
0 0 0 0 0 0 0 0 0 
0 0 0 9.76633e-10 0 0 0 0 9.90294e-10 
0 0 0 2.68598e-09 0 0 0 0 1.94474e-09 
2.35449e-09 2.48485e-09 7.37937e-07 3.61433e-09 0 0 0 6.63181e-07 2.36037e-09 
0 0 0 6.21391e-10 0 2.75755e-09 0 0 0 
7.64821e-10 2.04052e-09 0 1.63058e-10 0 0 0 0 0 
0 0 0 0 0 0 0 0 6.99113e-10 
0 0 0 0 0 0 0 0 0 
0 0 0 9.8306e-07 1.08422e-06 0 0 0 0 
0 0 0 0 0 0 0 0 0 
0 0 0 0 0 0 0 0 0 
0 0 0 0 0 0 0 0 0 
0 0 0 0 0 0 0 0 0 
0 5.64771e-10 0 0 0 7.08114e-07 2.2052e-09 0 1.8882e-09 
0 0 4.06997e-09 1.10187e-09 0 0 0 0 2.35051e-09 
2.24397e-09 0 0 0 0 6.71957e-07 1.97087e-09 1.27898e-09 1.61005e-09 
0 0 0 0 0 0 0 0 0 
5.19645e-10 0 0 0 0 0 3.948e-09 0 6.00141e-10 
0 0 0 0 0 0 0 0 0 
0 0 0 0 0 9.49508e-07 0 0 3.9389e-09 
1.7473e-09 0 0 0 0 5.48616e-10 0 0 7.66686e-07 
0 0 1.55277e-09 0 0 0 0 0 0 
0 0 0 0 0 0 0 0 0 
0 0 0 0 0 0 0 0 0 
0 0 0 0 0 0 1.51302e-09 0 1.21595e-09 
0 0 0 0 7.43782e-07 0 2.26542e-09 0 3.00931e-09 
0 0 0 4.00077e-09 0 0 0 0 0 
2.13728e-09 0 2.84989e-11 0 0 0 0 0 0 
0 0 0 0 0 0 0 6.80517e-07 0 
0 1.71357e-09 4.06489e-10 0 0 0 0 0 0 
0 0 0 1.14687e-09 0 0 0 0 0 
2.13152e-09 3.55947e-09 0 0 0 0 0 0 0 
0 7.70142e-07 0 0 0 0 0 0 0 
0 0 0 0 0 0 0 0 0 
0 0 0 0 0 0 0 0 0 
0 0 0 0 0 6.54976e-09 6.95919e-07 3.2491e-09 0 
4.19568e-09 0 0 1.89949e-09 0 0 0 0 1.72928e-09 
0 0 3.61004e-09 6.64642e-07 8.01091e-10 9.08595e-10 0 1.71702e-09 0 
0 0 1.31793e-09 0 1.76176e-09 0 1.00529e-09 0 0 
0 0 2.25693e-09 7.63234e-07 8.15127e-09 0 0 0 0 
2.02269e-09 0 7.78506e-09 0 7.14628e-10 0 0 1.05665e-09 1.09412e-09 
0 0 1.17164e-09 0 0 0 0 4.40405e-09 1.24781e-09 
0 6.685e-07 3.94023e-09 1.95375e-09 0 8.87716e-10 0 0 0 
0 0 0 3.18388e-09 0 0 0 0 0 
0 0 0 0 0 0 0 0 0 
0 0 0 0 0 0 0 0 0 
0 0 0 0 0 0 2.9617e-09 0 0 
0 0 0 3.37585e-10 0 0 6.70312e-10 0 2.42063e-09 
0 0 0 0 0 1.02534e-08 0 1.82016e-09 0 
6.7209e-07 0 2.44225e-09 0 0 3.02578e-09 0 0 0 
0 0 0 0 0 7.66219e-07 0 1.70837e-09 0 
0 0 0 4.51281e-09 0 0 2.72687e-09 1.39003e-09 0 
0 3.82477e-10 0 0 0 0 0 0 0 
0 2.73103e-09 0 1.36692e-09 0 0 0 0 0 
0 0 0 0 2.64324e-09 0 0 0 0 
0 0 0 0 0 0 0 0 0 
0 0 0 0 0 0 0 0 0 
0 0 0 0 0 0 0 0 0 
0 1.51142e-09 0 0 0 0 0 0 6.7457e-07 
0 0 2.01896e-09 2.04969e-09 1.12994e-09 0 0 3.95116e-09 0 
0 0 0 0 0 0 6.6204e-07 0 0 
0 0 0 1.44182e-09 0 0 0 0 0 
0 0 0 0 0 9.63811e-07 1.80426e-09 0 0 
0 0 2.86663e-09 0 6.55592e-07 0 0 0 0 
0 1.82717e-09 2.7546e-09 0 0 0 0 0 0 
0 0 4.69207e-09 0 0 0 0 8.02094e-10 0 
0 0 0 0 0 0 0 0 0 
0 0 0 0 0 0 0 0 0 
0 0 0 0 0 0 0 0 0 
0 0 0 0 0 0 0 0 0 
0 0 0 0 0 0 0 0 0 
0 8.16187e-10 0 1.25957e-09 0 0 0 0 0 
1.62674e-09 1.00546e-09 0 0 0 0 1.95452e-09 0 0 
0 0 0 0 0 0 0 0 0 
0 0 0 0 0 4.18443e-09 2.61548e-09 0 0 
0 0 0 0 0 0 8.85952e-10 0 0 
3.19089e-09 0 0 5.13832e-09 8.23435e-07 0 0 0 0 
0 0 0 0 0 0 0 0 0 
0 0 0 0 0 0 0 0 0 
0 0 0 0 0 0 0 0 0 
0 1.13566e-09 0 0 0 0 0 3.98135e-10 0 
0 0 0 2.3478e-09 0 0 0 0 0 
0 0 1.83257e-09 0 0 3.43387e-09 2.75113e-09 0 2.46565e-09 
0 1.775e-09 1.54222e-09 0 0 0 0 0 0 
0 0 0 0 0 0 0 1.00384e-06 9.81879e-09 
0 0 0 0 2.13201e-09 0 0 0 2.58579e-09 
0 6.1373e-10 0 2.463e-09 0 0 0 0 0 
0 0 3.73235e-09 0 9.82886e-07 0 0 0 0 
0 0 0 0 0 0 0 0 0 
0 0 0 0 0 0 0 0 0 
0 0 0 0 0 0 0 0 1.80374e-09 
6.56004e-09 0 1.30731e-09 0 0 0 0 0 6.51427e-07 
4.21769e-09 0 0 1.74566e-09 0 0 2.19121e-09 0 4.90666e-10 
0 0 0 0 0 1.1507e-09 0 6.72078e-07 0 
0 0 0 0 0 0 0 0 0 
6.93434e-10 0 0 0 2.81377e-09 0 0 0 9.42447e-07 
0 0 0 0 7.48196e-07 0 0 4.24399e-11 0 
0 0 0 0 0 0 0 1.78714e-09 0 
0 6.77755e-07 1.3412e-09 0 0 9.19333e-07 0 0 0 
1.13744e-09 0 0 0 0 0 0 0 0 
0 0 0 0 0 0 0 0 0 
0 0 0 0 0 0 0 0 0 
0 0 0 6.49292e-10 2.31767e-10 0 1.39402e-09 0 0 
2.86148e-09 2.16586e-09 0 1.39595e-09 0 0 0 0 0 
0 0 0 0 0 0 0 0 8.43999e-10 
0 1.41546e-09 2.46412e-09 0 0 2.49159e-09 0 0 0 
1.30008e-09 0 0 2.12269e-09 0 1.03009e-09 1.48107e-09 0 0 
6.3535e-09 0 0 9.49956e-07 0 1.41821e-09 0 3.84576e-09 0 
0 4.35465e-09 0 1.7446e-09 3.689e-09 0 6.65719e-07 0 0 
1.69435e-09 0 3.91684e-09 1.46501e-09 3.73935e-09 0 0 0 0 
0 0 5.32419e-10 0 0 0 0 0 0 
0 0 0 0 0 0 0 0 0 
0 0 0 0 0 0 0 0 0 
0 5.29822e-09 6.77241e-07 5.62381e-09 0 6.66228e-10 0 0 0 
0 0 3.06555e-09 0 0 0 6.88282e-10 1.1886e-09 6.52238e-07 
0 1.38401e-09 0 0 0 0 0 0 0 
0 0 7.06812e-09 7.38545e-07 0 3.37769e-09 0 1.82835e-09 0 
0 1.75454e-09 0 1.65918e-09 0 0 0 0 0 
0 0 1.28449e-09 0 9.14289e-07 0 0 4.26217e-09 0 
6.97596e-07 0 0 6.86722e-07 4.81485e-09 0 0 4.71755e-09 3.0223e-09 
0 2.25931e-09 4.00018e-09 0 0 0 0 0 0 
0 6.04889e-10 0 0 0 0 0 0 0 
0 0 0 0 0 0 0 0 0 
0 0 0 0 0 0 2.94411e-10 0 0 
0 0 0 0 0 0 0 0 0 
0 0 0 0 0 0 0 0 0 
1.07992e-09 0 0 0 4.49247e-10 0 0 0 0 
1.13853e-09 0 0 0 0 0 7.67008e-07 0 4.39887e-10 
0 0 0 0 0 0 0 0 0 
0 0 0 0 0 0 0 5.61959e-10 0 
0 0 0 0 4.08206e-09 0 6.19123e-09 0 0 
0 0 0 0 0 5.25242e-09 4.82043e-09 0 0 
0 0 0 0 0 0 0 0 0 
0 0 0 0 0 0 0 0 0 
0 0 0 0 0 0 0 0 0 
0 0 0 0 2.17465e-11 3.13099e-09 0 6.64042e-10 0 
0 5.39151e-10 2.83949e-09 8.5403e-10 0 0 0 0 9.47496e-10 
6.42063e-11 0 0 0 0 0 0 0 0 
0 0 2.1633e-09 1.28408e-09 0 0 0 1.16204e-09 2.78508e-09 
3.04181e-09 0 0 0 6.80021e-07 0 0 0 0 
0 0 1.52112e-09 0 0 0 0 0 0 
0 0 6.73816e-10 0 0 0 0 6.18891e-09 0 
1.02995e-09 0 4.17729e-09 0 0 7.79014e-07 0 0 5.38392e-10 
0 0 0 0 0 0 0 0 0 
0 0 0 0 0 0 0 0 0 
0 0 0 0 0 0 0 0 0 
1.17497e-09 0 0 8.75887e-07 8.93472e-07 0 0 1.12932e-10 0 
0 0 0 6.12551e-09 0 0 0 0 0 
2.27025e-09 0 0 1.83315e-09 0 0 0 0 0 
0 0 0 0 0 0 0 8.78253e-07 1.17873e-09 
0 0 0 0 4.62163e-09 1.66883e-09 0 0 6.7506e-07 
0 1.27355e-09 0 0 6.60895e-07 0 0 0 0 
0 0 0 2.33921e-09 1.55496e-09 0 3.37182e-09 0 0 
0 0 6.84409e-07 0 0 0 0 7.67405e-07 0 
0 0 0 0 0 0 0 0 0 
0 0 0 0 0 0 0 0 0 
0 0 0 0 0 0 0 0 0 
0 1.52304e-09 0 0 0 0 5.66818e-09 0 0 
1.92274e-09 1.3962e-09 0 0 0 6.44726e-07 7.64997e-09 2.82691e-09 9.00987e-10 
0 7.07449e-10 0 1.71573e-09 6.51291e-07 2.63735e-09 1.77182e-09 0 0 
7.01954e-10 0 3.9598e-10 0 0 0 0 0 0 
0 0 0 0 4.93645e-09 0 0 0 9.31753e-10 
0 5.24964e-09 0 0 0 0 0 0 0 
1.73542e-09 0 6.5947e-07 0 0 0 2.39809e-09 2.61955e-10 0 
6.83917e-07 0 0 2.83868e-09 0 1.26328e-09 0 0 0 
0 0 0 0 0 0 0 0 0 
0 0 0 0 0 0 0 0 0 
0 0 0 0 0 0 0 0 0 
0 0 8.62894e-10 9.88979e-10 1.93504e-09 0 0 0 0 
0 0 1.30692e-09 4.26441e-10 0 0 0 0 1.70337e-09 
0 0 0 0 0 3.77597e-09 0 0 0 
0 8.89958e-10 0 0 0 0 0 9.92794e-07 1.1563e-06 
1.04975e-06 0 0 1.45981e-09 7.74673e-07 0 0 3.28023e-09 4.1999e-09 
0 0 3.22246e-09 0 0 0 0 0 0 
0 0 2.07707e-09 2.9688e-09 0 4.95962e-10 3.12331e-09 1.13536e-09 0 
1.44778e-09 0 0 0 0 7.97936e-10 0 1.63501e-09 7.0368e-10 
3.25208e-09 0 1.05549e-09 0 0 0 0 0 0 
0 0 0 0 0 0 0 0 0 
0 0 0 0 0 0 0 0 0 
0 0 0 0 0 5.43926e-09 0 0 6.94888e-09 
8.75019e-07 0 0 1.21331e-09 0 0 0 0 0 
0 0 0 0 0 9.83895e-10 1.62043e-09 0 0 
0 0 0 0 0 0 0 0 0 
1.72964e-09 0 0 0 0 0 5.39923e-09 7.35139e-07 0 
0 3.67776e-09 0 0 0 0 0 0 0 
0 2.846e-10 0 0 0 0 0 0 6.62841e-07 
1.36543e-09 0 0 0 2.88018e-09 1.11559e-09 0 0 0 
0 0 9.5815e-12 0 0 0 0 0 0 
0 0 0 0 0 0 0 0 0 
0 0 0 0 0 0 0 0 0 
0 0 0 0 0 0 0 0 4.21348e-09 
0 8.65122e-07 0 0 0 0 0 1.06762e-09 0 
6.73602e-10 0 0 0 0 0 0 0 9.35544e-10 
0 0 0 0 0 0 0 0 0 
0 2.24897e-09 0 2.06992e-09 0 7.41084e-07 0 0 3.68121e-09 
0 0 0 0 4.18733e-10 0 0 0 0 
0 0 0 0 0 0 0 0 0 
0 0 0 0 0 2.1458e-09 0 0 0 
0 2.77782e-10 0 0 0 0 0 0 0 
0 0 0 0 0 0 0 0 0 
0 0 0 0 0 0 0 0 0 
0 0 0 0 1.26448e-09 0 1.20299e-09 0 0 
0 0 1.78143e-08 0 2.67632e-09 0 0 0 0 
0 0 0 0 0 0 0 0 0 
0 0 0 1.83237e-09 0 0 0 2.20833e-09 0 
4.44082e-09 7.10019e-07 3.02998e-09 0 0 0 7.00324e-09 3.51098e-09 5.34398e-09 
0 0 0 0 8.65126e-07 0 0 0 0 
0 0 0 0 0 0 0 3.03616e-10 0 
1.04911e-09 0 1.63944e-09 0 0 1.82495e-09 2.38876e-09 0 1.17121e-09 
1.18481e-09 4.47787e-10 0 0 0 0 0 0 0 
0 0 0 0 0 0 0 0 0 
0 0 0 0 0 0 0 0 0 
0 0 0 0 0 0 0 0 0 
0 0 1.66192e-09 0 0 0 6.50018e-10 0 0 
0 0 0 0 0 0 0 0 0 
0 0 0 0 0 2.92637e-09 6.46877e-07 5.35123e-09 1.26093e-09 
0 3.81134e-09 0 0 0 1.87021e-09 0 2.41771e-09 0 
0 0 0 0 2.31595e-09 8.61476e-07 0 3.4598e-09 1.60679e-09 
0 0 0 0 0 0 0 0 0 
0 0 0 0 3.67782e-10 7.49752e-10 0 0 2.39096e-09 
0 0 0 0 0 0 0 0 0 
1.99197e-11 0 0 0 0 0 0 0 0 
0 0 0 0 0 0 0 0 0 
0 0 0 0 0 0 0 4.03942e-09 0 
0 1.57107e-09 0 1.04773e-09 0 0 0 0 1.37414e-09 
0 0 0 0 0 0 0 0 0 
0 0 0 0 0 0 0 3.16229e-09 0 
0 0 0 2.20541e-09 0 0 1.6942e-13 0 0 
0 0 0 0 0 0 0 0 0 
0 0 0 0 0 0 0 0 0 
0 0 0 0 0 0 1.58222e-09 0 6.52419e-07 
0 1.83038e-09 0 0 0 0 0 0 0 
0 0 0 0 0 0 0 0 0 
0 0 0 0 0 0 0 0 0 
0 0 0 0 0 0 0 0 6.44309e-07 
0 0 8.21432e-10 0 2.17751e-09 3.43944e-09 0 4.01853e-10 9.60378e-10 
9.32915e-10 0 0 0 0 0 0 0 0 
0 0 0 0 0 0 0 0 7.10395e-10 
0 0 0 0 6.86982e-10 0 0 6.38589e-10 0 
0 0 0 0 0 1.41071e-09 0 5.11084e-09 0 
1.87576e-09 0 0 0 4.12494e-09 0 6.29841e-10 7.5162e-10 0 
0 0 0 0 0 0 0 0 3.61473e-09 
1.9384e-09 0 0 0 0 1.37677e-09 0 0 0 
0 0 0 0 0 0 0 0 0 
0 0 0 0 0 0 0 0 0 
0 0 0 0 0 0 0 0 2.05135e-09 
1.42172e-09 0 2.34489e-10 0 0 0 1.09589e-09 0 0 
0 0 0 0 0 0 0 0 0 
0 0 0 0 1.30447e-09 0 0 0 8.86375e-10 
0 0 0 0 0 7.81329e-10 0 0 0 
0 0 0 0 0 0 0 0 0 
0 0 2.30546e-09 0 1.19933e-09 6.82849e-07 0 3.09476e-09 0 
0 0 0 0 0 0 0 0 0 
0 0 0 0 0 0 0 1.32418e-09 0 
0 0 0 0 0 0 0 0 0 
0 0 0 0 0 0 0 0 0 
0 0 0 0 0 0 0 0 0 
0 2.24307e-09 1.62681e-09 1.16822e-09 0 0 0 3.21838e-09 6.59479e-07 
4.55783e-09 0 0 0 0 0 0 0 0 
4.37457e-10 3.35232e-10 0 0 2.95277e-10 1.02431e-09 0 0 0 
0 0 0 0 0 0 0 4.77095e-10 0 
0 0 0 0 0 0 0 0 1.41016e-09 
0 0 2.70723e-09 6.69156e-10 0 0 0 0 3.20783e-09 
0 0 0 0 0 0 0 0 0 
1.26498e-09 0 0 0 0 1.99274e-09 0 0 0 
8.32222e-11 0 0 0 0 0 0 0 0 
0 0 0 0 0 0 0 0 0 
0 0 0 0 0 0 0 0 0 
0 6.61672e-10 0 0 1.00129e-09 0 0 0 0 
0 0 4.44624e-09 0 6.73204e-07 0 0 1.53122e-09 0 
0 0 0 0 0 1.33486e-10 0 9.28931e-10 0 
0 0 0 0 8.49307e-10 0 0 2.61792e-09 0 
0 0 0 0 0 0 0 0 0 
0 6.57641e-10 0 0 0 6.79164e-07 6.45148e-09 0 0 
3.97396e-09 0 0 0 0 0 0 0 0 
0 7.54467e-10 1.99752e-09 0 6.52561e-07 4.10922e-09 0 0 2.58371e-09 
0 1.67011e-09 0 0 0 0 0 0 0 
0 0 0 0 0 0 0 0 0 
0 0 0 0 0 0 0 0 0 
0 0 0 0 0 0 0 0 0 
0 0 0 0 0 0 0 0 0 
0 0 0 0 3.89463e-09 0 0 2.74403e-09 0 
0 0 2.68288e-09 0 0 0 2.61212e-09 6.45393e-07 0 
4.55358e-09 0 0 0 0 0 0 0 0 
6.47022e-07 4.40262e-09 0 1.22275e-09 0 0 0 0 0 
1.46833e-08 6.62947e-07 0 2.13296e-09 0 0 0 0 0 
0 0 1.21495e-09 0 0 0 0 0 0 
0 0 8.56472e-07 0 0 0 0 0 0 
0 0 0 0 0 0 0 0 0 
0 0 0 0 0 0 0 0 0 
0 0 0 0 0 0 0 0 0 
0 0 0 0 0 0 4.74439e-09 0 0 
1.28564e-09 2.14456e-10 0 0 9.11544e-10 0 6.71003e-07 0 3.64149e-09 
0 0 0 0 0 0 2.29807e-09 5.17804e-10 0 
0 0 4.45676e-10 0 0 0 0 0 0 
0 0 1.34301e-09 0 0 0 3.57321e-09 0 0 
0 0 0 2.72472e-09 0 0 0 0 0 
0 0 0 0 0 0 0 0 7.59378e-10 
0 2.86329e-09 0 8.56824e-07 5.16991e-09 0 0 0 0 
0 0 0 0 0 0 0 0 0 
0 0 0 0 0 0 0 0 0 
0 0 0 0 0 0 0 0 1.09887e-09 
0 1.87022e-09 0 0 0 7.79302e-09 6.95495e-07 2.8613e-09 2.69283e-09 
8.69789e-10 2.74744e-09 0 0 0 0 0 0 0 
0 0 0 8.14112e-07 0 1.08705e-09 0 1.82418e-09 0 
0 0 6.10072e-11 0 0 0 0 0 0 
2.25413e-09 1.95403e-11 0 0 0 0 0 0 0 
6.09498e-10 0 0 0 0 0 1.8385e-10 0 0 
0 0 0 0 0 0 1.8972e-09 0 0 
0 0 0 0 0 0 1.30181e-09 0 3.34003e-10 
0 0 0 0 0 0 0 0 0 
0 0 0 0 0 0 0 0 0 
0 0 0 0 0 0 3.91636e-09 1.04842e-09 4.61303e-09 
0 1.15216e-09 0 2.59737e-09 8.11378e-07 0 0 0 2.94677e-09 