# vtk DataFile Version 5.1
vtk output
ASCII
DATASET STRUCTURED_POINTS
DIMENSIONS 250 250 1
SPACING 1 1 1
ORIGIN 0 0 0
POINT_DATA 62500
FIELD FieldData 6
feature_1 1 62500 float
1.79695e-12 0 6.89504e-12 1.67409e-12 0 1.17992e-12 6.91899e-12 1.27331e-11 0 
0 0 0 1.68076e-13 3.14015e-12 5.40115e-12 0 0 2.86548e-12 
1.58909e-12 0 4.15092e-12 0 1.00569e-12 6.58312e-13 6.85679e-12 0 4.76578e-12 
4.46314e-12 0 3.36556e-12 0 6.52865e-12 0 6.36509e-12 1.46023e-12 5.60537e-13 
0 0 3.39934e-12 0 7.47007e-12 3.42974e-12 2.55011e-12 3.9671e-13 1.79381e-13 
0 2.57145e-12 0 2.55509e-12 8.95347e-12 4.55521e-12 4.9627e-12 0 0 
2.0359e-12 0 2.30866e-12 0 0 0 8.44427e-12 0 0 
0 0 1.49068e-11 0 0 0 5.28342e-12 6.9958e-12 5.47723e-12 
0 8.17872e-13 5.78088e-13 0 0 6.8904e-12 0 0 0 
5.91522e-12 0 6.67689e-13 6.77749e-12 0 0 8.13209e-12 5.59578e-12 5.35049e-13 
5.63482e-12 0 0 0 0 0 0 0 2.27262e-12 
1.26924e-11 4.20806e-12 0 1.40341e-12 0 1.21231e-12 0 0 0 
6.02741e-12 7.9802e-12 2.95582e-12 0 0 5.57983e-12 0 0 6.4252e-12 
5.16294e-12 0 0 7.92677e-12 0 4.06648e-12 0 0 2.9105e-12 
7.98584e-12 0 2.84436e-12 3.93541e-12 0 0 0 0 0 
0 0 1.78301e-12 0 0 1.13732e-11 0 0 4.27843e-13 
0 2.23944e-12 6.59689e-12 0 0 0 1.19853e-11 8.869e-12 2.13244e-12 
0 0 0 6.26743e-14 4.6613e-12 1.37391e-12 0 4.13863e-12 0 
7.87113e-12 7.24619e-12 0 0 0 0 8.24258e-12 1.83338e-12 0 
0 2.29492e-12 1.20523e-11 5.92212e-12 4.44183e-12 0 2.51439e-13 0 0 
0 0 0 0 0 0 8.75886e-12 3.00756e-12 0 
8.17191e-12 3.57192e-12 0 6.9485e-12 0 0 0 0 3.53136e-12 
0 1.21028e-12 4.32325e-12 9.42949e-13 0 2.27538e-12 0 2.06856e-13 0 
0 1.16685e-12 0 1.33643e-11 8.06676e-13 2.00582e-12 4.60302e-12 6.04509e-12 3.33688e-13 
8.38834e-12 0 0 0 3.11749e-12 3.58814e-12 0 8.55069e-13 0 
0 0 0 2.74857e-12 0 0 4.67662e-12 0 1.25661e-11 
5.92482e-12 5.66866e-12 0 3.58718e-12 0 2.13016e-12 0 4.50948e-12 5.95604e-12 
2.9718e-12 1.00489e-11 0 0 0 0 3.21137e-12 5.6218e-12 0 
1.73657e-12 4.67543e-12 0 0 0 0 1.86074e-12 0 0 
1.17749e-12 0 8.51353e-12 0 0 8.32626e-12 0 7.7906e-13 0 
0 0 0 1.1899e-12 1.91561e-12 0 0 1.07786e-11 1.73019e-11 
0 0 3.31144e-12 8.10139e-12 0 7.75647e-14 0 2.46521e-12 1.20159e-12 
3.17186e-12 0 1.05139e-13 5.2764e-13 0 0 0 7.9543e-12 0 
9.79754e-12 1.37256e-11 2.50427e-12 6.45671e-12 0 0 2.45656e-12 0 4.49272e-12 
0 0 0 0 0 1.64774e-12 2.6046e-12 0 0 
0 0 0 0 6.55277e-12 0 0 0 0 
0 0 6.2744e-12 1.07879e-13 0 0 0 0 4.88063e-12 
0 7.07558e-12 3.29519e-12 0 1.04868e-11 0 9.3918e-12 0 0 
7.48549e-13 1.58203e-12 0 0 3.29934e-12 0 0 0 0 
0 0 5.29549e-12 0 2.90467e-12 0 0 1.45799e-11 5.47702e-12 
4.19714e-12 0 7.17446e-12 5.2465e-12 9.95873e-12 0 0 0 0 
0 0 0 4.63486e-12 0 0 0 0 0 
0 0 0 1.54779e-11 0 0 4.70251e-12 9.30722e-12 0 
8.94788e-13 0 1.2464e-12 3.52619e-13 0 0 0 1.80745e-12 6.93039e-12 
0 0 0 0 0 2.16893e-12 0 2.80811e-12 0 
3.65989e-12 0 0 1.03192e-12 4.99156e-12 3.91634e-12 6.13776e-12 0 0 
0 1.489e-12 0 7.29692e-12 0 0 0 1.68806e-12 0 
0 1.24558e-11 0 6.05869e-12 3.17712e-12 0 6.80238e-12 1.7033e-13 1.17185e-12 
2.09586e-12 6.97278e-12 1.63228e-12 0 0 1.26804e-11 2.72119e-13 7.19279e-13 1.3197e-12 
0 3.10698e-12 0 0 0 0 7.37411e-12 0 0 
1.10817e-11 2.61993e-12 1.12082e-12 5.22383e-12 2.15085e-12 6.68247e-12 0 0 0 
0 1.51229e-12 2.23634e-13 1.21689e-11 0 6.64553e-12 5.03966e-12 4.73709e-12 3.1983e-12 
0 7.04528e-12 1.12573e-11 9.26372e-12 5.02337e-12 5.59857e-12 0 3.55005e-12 3.76105e-12 
0 0 3.08668e-12 0 2.30233e-13 0 0 0 0 
7.3951e-12 4.93394e-12 2.12728e-12 0 0 2.43663e-12 0 5.84251e-13 0 
6.0395e-12 3.73383e-12 4.56603e-12 6.29487e-12 1.1866e-12 3.58576e-12 0 2.77275e-12 3.78838e-12 
8.57745e-13 0 0 0 0 0 7.73327e-12 0 0 
1.3886e-13 1.60235e-12 0 1.09631e-12 3.25249e-13 0 0 0 0 
0 8.03618e-12 1.05127e-11 0 0 2.29638e-13 8.20961e-13 1.32307e-12 4.77689e-12 
0 0 7.05992e-12 5.94639e-12 0 1.74776e-13 1.47116e-11 0 0 
0 0 2.39076e-12 1.38228e-12 3.44454e-12 0 0 0 8.17396e-12 
2.92275e-12 0 0 0 4.35156e-12 0 1.92215e-12 0 4.44457e-12 
0 1.44765e-11 3.20778e-12 5.37273e-13 1.73187e-12 3.44015e-12 5.29682e-12 3.5446e-12 1.04038e-12 
0 0 0 5.17852e-13 0 0 3.21118e-12 0 1.79475e-12 
0 0 1.00015e-11 0 6.34905e-12 0 3.90116e-12 1.07926e-12 6.53917e-13 
0 0 0 9.65922e-12 1.12425e-11 0 1.36024e-11 2.68309e-12 0 
0 1.53555e-12 0 0 8.57977e-12 5.94128e-12 0 3.35927e-12 0 
0 0 3.77687e-12 4.1635e-12 6.66854e-12 9.18763e-12 1.12253e-11 7.27052e-12 0 
2.52987e-12 0 0 1.33494e-12 5.85758e-12 0 0 5.30792e-12 2.6292e-12 
2.65871e-12 0 1.22867e-12 9.50424e-12 0 7.41922e-12 5.82601e-13 0 4.70142e-14 
1.40136e-13 1.72019e-11 0 2.7585e-12 0 0 0 2.97857e-12 0 
0 0 7.64061e-12 1.37362e-11 9.99254e-13 0 5.22393e-12 1.18548e-11 3.71822e-12 
0 3.00744e-12 9.69197e-13 2.81294e-12 0 1.32044e-12 0 1.41621e-12 1.11736e-11 
4.06918e-12 0 0 0 4.75539e-12 2.18336e-13 1.01507e-12 1.30877e-12 0 
0 1.15232e-12 1.12588e-11 8.73931e-12 7.2749e-12 0 0 0 3.19662e-14 
1.73476e-12 0 0 3.88603e-12 2.77962e-14 2.91341e-12 0 8.79127e-12 6.55516e-12 
3.59061e-12 0 3.8501e-12 0 2.51445e-13 4.8395e-12 0 7.49404e-13 1.48064e-12 
0 5.04932e-12 1.83123e-12 0 0 1.09152e-12 1.54047e-12 4.86016e-12 9.34794e-12 
7.90831e-12 0 0 9.42012e-12 0 7.94977e-12 0 9.02438e-12 0 
2.72099e-12 3.88497e-12 5.93642e-13 0 8.60306e-12 3.56145e-13 7.22971e-12 0 1.13657e-12 
0 0 1.20271e-12 4.82807e-12 0 9.72822e-12 6.2279e-12 5.59842e-12 3.98476e-12 
0 0 0 3.52792e-12 3.02391e-12 0 1.05354e-11 4.1784e-12 9.82219e-12 
0 3.20191e-12 2.32919e-12 3.11686e-12 3.68306e-12 0 3.43284e-12 7.54424e-12 0 
1.27347e-12 0 0 0 0 0 0 0 0 
0 0 0 2.01492e-12 6.99602e-12 5.03667e-12 0 9.10274e-14 0 
2.53407e-12 0 2.74479e-12 6.45554e-12 6.53777e-12 0 1.99391e-13 0 0 
0 1.03541e-12 0 9.2159e-12 4.90275e-12 0 1.5061e-12 0 0 
0 1.78367e-12 0 0 0 5.23127e-12 2.41642e-12 2.18467e-13 0 
1.0929e-12 0 0 3.66456e-12 8.68127e-12 0 2.25572e-13 0 0 
1.83386e-12 0 0 0 0 0 0 1.02425e-12 0 
8.22727e-12 1.62589e-12 4.10641e-12 0 5.09494e-12 0 0 0 0 
6.06094e-12 5.51096e-12 0 0 0 0 1.19351e-12 0 3.78956e-12 
0 1.20484e-11 0 0 2.75742e-12 0 0 0 0 
0 3.80795e-12 1.89047e-12 6.83861e-12 0 0 1.46646e-11 5.66408e-12 0 
1.04382e-11 8.41788e-12 0 1.08176e-11 6.85106e-14 2.53154e-12 5.00403e-13 4.06281e-12 0 
0 6.04948e-12 0 0 0 3.25887e-12 3.11083e-12 0 0 
0 1.04585e-11 2.07039e-12 3.50116e-12 0 0 0 0 8.86991e-12 
0 5.31435e-12 3.30418e-12 0 3.17386e-13 0 0 0 0 
0 6.34124e-12 0 0 0 5.46147e-12 0 0 0 
1.15723e-11 0 9.23984e-12 0 1.85035e-12 2.01284e-12 3.41727e-12 9.78329e-12 0 
0 0 0 9.39596e-12 4.86169e-12 1.22029e-12 3.96559e-12 0 7.98206e-12 
0 2.19287e-12 0 0 2.55927e-13 0 2.80907e-12 7.22235e-12 7.41531e-12 
0 0 0 4.90168e-12 1.14471e-11 0 0 2.85533e-13 9.0243e-12 
2.84519e-12 0 5.62759e-12 0 6.45644e-12 0 5.47072e-12 0 0 
0 0 7.52859e-13 0 6.34972e-12 2.35398e-12 0 0 0 
0 0 0 4.33437e-13 0 3.5397e-12 0 2.98054e-12 7.01377e-12 
0 0 1.17417e-11 9.68399e-12 0 1.03709e-11 4.02882e-12 5.37307e-13 0 
5.95787e-12 0 1.10741e-12 3.64001e-12 0 8.60834e-12 4.95116e-12 4.92194e-12 1.89828e-12 
2.96274e-13 7.19672e-12 9.80501e-12 5.65858e-13 1.24607e-12 3.06103e-12 7.76443e-13 0 0 
2.56896e-12 7.24393e-14 3.21403e-12 1.31722e-11 0 0 0 0 0 
0 0 2.64918e-12 1.96905e-12 1.76191e-12 4.36638e-12 0 5.1001e-12 0 
9.42301e-12 1.80684e-12 3.66292e-12 0 5.29087e-12 2.72084e-12 1.60282e-12 4.47266e-12 7.00519e-12 
6.19515e-12 9.66572e-12 0 2.56792e-12 0 0 7.08989e-13 6.27623e-12 1.25762e-12 
0 2.29512e-12 1.52539e-12 0 0 1.20644e-11 0 5.77835e-12 0 
8.15055e-12 2.86388e-12 3.25232e-12 3.60568e-12 7.23557e-12 0 4.8158e-12 3.36358e-12 0 
5.28764e-12 0 0 3.07281e-12 1.83485e-12 3.99506e-12 6.01851e-12 0 4.428e-12 
0 4.50693e-12 0 0 0 0 0 2.89714e-12 1.97444e-12 
3.08106e-13 3.03781e-12 5.14422e-12 0 0 0 8.44185e-12 2.31317e-12 0 
6.27626e-12 7.99316e-12 1.10516e-12 2.41281e-13 1.79247e-13 6.71703e-12 0 7.79439e-12 0 
0 4.07382e-13 1.3932e-12 0 8.21521e-12 7.9029e-12 0 0 9.60476e-13 
0 0 1.22478e-13 0 3.6505e-13 6.91379e-12 0 0 3.84917e-13 
2.09764e-11 8.0893e-13 4.72665e-13 0 6.14701e-12 0 0 1.64069e-13 0 
5.88617e-12 1.04172e-11 6.59881e-12 1.10272e-12 4.25932e-12 7.52132e-13 0 4.37096e-12 9.01691e-12 
0 0 0 3.21485e-12 0 0 0 6.12311e-12 0 
0 0 0 1.04352e-12 1.11232e-11 1.77172e-12 0 5.05802e-12 0 
9.49537e-14 0 0 0 4.11604e-12 8.52353e-12 2.74725e-12 0 1.0107e-11 
0 6.9578e-12 8.15664e-12 9.91257e-12 6.94169e-13 2.15987e-12 3.5023e-13 1.97916e-12 0 
0 0 8.31952e-12 0 2.65673e-12 0 0 0 0 
0 4.93908e-13 0 0 5.65023e-12 6.13418e-12 2.22648e-12 0 3.91878e-12 
0 1.46853e-11 5.52745e-14 0 1.18073e-11 4.46465e-12 0 1.54296e-12 1.28771e-12 
0 0 0 7.82982e-12 0 0 1.00086e-12 0 4.62795e-12 
7.74467e-12 3.09784e-12 7.90706e-12 0 0 0 4.35875e-12 1.87714e-12 0 
0 0 7.33557e-12 1.02754e-11 0 0 7.28886e-12 3.96727e-12 0 
0 0 0 1.11368e-12 0 6.13117e-12 0 2.70604e-12 0 
0 3.56644e-12 0 3.11396e-12 0 0 0 0 0 
1.34361e-13 0 2.27642e-13 0 0 1.01211e-12 6.02137e-12 2.0547e-12 0 
0 8.9127e-12 3.65841e-12 3.33488e-13 0 0 5.82607e-12 6.71588e-12 6.16719e-12 
4.84445e-13 1.10476e-11 4.94113e-12 0 0 0 4.15657e-12 0 0 
0 0 0 1.1424e-11 0 2.34806e-12 3.11869e-12 0 2.34336e-12 
0 5.87853e-12 0 0 0 0 5.68266e-13 0 7.62971e-13 
1.02548e-11 0 0 4.14769e-12 0 0 0 0 3.02787e-12 
2.65217e-12 0 2.32168e-13 0 4.78081e-12 0 2.50776e-12 7.65933e-12 2.09601e-12 
0 4.87177e-12 1.10543e-11 0 1.84889e-12 7.04206e-12 2.14295e-12 4.11861e-12 0 
0 0 8.82973e-12 0 0 7.72863e-12 5.37484e-12 3.18726e-12 6.21565e-12 
0 0 4.42622e-12 0 0 0 5.70132e-12 0 0 
6.2296e-12 0 0 0 0 1.86952e-11 1.12362e-11 2.61165e-12 0 
0 0 0 3.47218e-13 3.78109e-12 0 0 2.56621e-12 1.45135e-12 
0 7.99725e-12 0 7.84827e-13 0 1.23164e-11 0 7.3107e-12 0 
3.88262e-13 7.21345e-12 5.96139e-12 2.35264e-12 0 0 7.50447e-12 1.1949e-12 1.00229e-12 
0 0 0 6.94769e-12 5.50851e-12 5.42501e-12 0 0 7.42351e-12 
0 3.50426e-12 0 0 3.53936e-12 2.00053e-12 0 0 3.42296e-12 
2.40763e-12 2.57931e-12 0 6.28524e-12 4.67686e-12 2.93802e-12 3.65515e-12 0 0 
1.09954e-12 4.37298e-12 0 0 0 0 3.19073e-12 0 0 
1.28108e-12 5.25321e-12 0 1.05664e-12 0 1.14621e-11 2.61809e-13 0 9.85993e-12 
4.63783e-12 0 3.66872e-13 0 0 0 5.02672e-13 0 2.4273e-12 
0 0 0 3.50967e-12 1.68712e-12 1.8585e-12 4.41628e-12 2.03823e-12 1.6629e-13 
4.15732e-12 1.00277e-12 1.07483e-11 0 1.1632e-11 0 0 0 9.23688e-12 
2.99503e-12 0 8.01227e-14 3.02355e-13 0 1.67533e-11 0 0 4.74976e-12 
0 3.67069e-13 0 0 0 4.59493e-12 8.04548e-13 0 2.0633e-13 
0 0 2.16815e-12 0 0 9.9667e-13 0 0 2.68579e-12 
6.82853e-13 0 0 0 9.81979e-12 1.6867e-12 1.1691e-11 0 0 
4.28764e-12 3.07266e-12 5.31828e-12 1.00896e-12 0 7.33727e-12 0 2.13671e-12 0 
0 0 0 6.06311e-12 0 1.73981e-12 0 0 4.68756e-12 
0 0 0 1.96903e-12 0 5.74364e-12 5.03919e-12 1.75614e-11 0 
0 4.09185e-12 5.63984e-12 0 0 2.27754e-12 0 1.4801e-11 0 
1.26942e-13 0 0 4.53357e-12 0 5.4469e-13 2.74028e-12 5.90275e-12 0 
0 0 1.21102e-13 1.13858e-12 5.97349e-13 0 0 0 0 
1.93549e-12 0 3.29548e-12 7.33051e-12 5.65285e-13 0 0 9.05631e-12 0 
6.45038e-12 1.28275e-12 1.72974e-13 0 4.19358e-12 0 0 1.18023e-11 1.33291e-12 
4.12204e-12 4.57257e-12 0 0 0 1.22814e-12 1.05247e-12 0 0 
0 0 7.3627e-12 5.99257e-12 7.87373e-12 3.43124e-12 0 0 8.37407e-12 
1.25037e-12 0 1.12184e-11 6.0204e-12 1.04778e-12 0 0 1.11284e-11 8.38604e-13 
3.42364e-12 6.08425e-12 1.09197e-11 0 1.39006e-12 7.41278e-12 0 0 8.34185e-12 
0 0 0 0 7.68318e-12 0 0 6.74991e-13 5.50388e-13 
0 7.44832e-12 1.45019e-12 4.98603e-12 0 0 2.70657e-12 1.105e-12 0 
0 0 8.04168e-12 4.01995e-12 5.27279e-12 5.16679e-12 0 7.56087e-12 2.33946e-13 
0 0 8.09063e-12 7.47603e-12 1.90665e-12 6.77587e-12 0 6.81209e-12 3.85821e-12 
0 0 0 0 0 6.37261e-12 0 8.06977e-12 0 
3.06514e-12 0 0 0 7.6917e-12 0 1.83633e-12 0 0 
4.95104e-12 0 6.11509e-12 6.29433e-12 1.25047e-12 4.20375e-12 0 0 0 
3.1455e-14 1.75185e-12 0 2.72944e-12 0 3.83089e-13 0 0 0 
0 5.83145e-13 0 7.75191e-12 0 0 0 0 1.19966e-11 
0 0 0 0 2.12711e-13 0 4.32047e-12 0 1.79964e-13 
1.3944e-12 0 6.06457e-12 0 3.87574e-12 3.0688e-12 0 1.16313e-11 8.31077e-12 
0 0 0 0 6.42827e-12 0 2.21075e-12 0 0 
4.13402e-12 0 6.58095e-12 0 0 0 9.34033e-13 0 0 
0 0 0 0 1.23092e-12 7.68433e-12 0 2.57236e-13 0 
0 3.40957e-12 9.07853e-12 0 8.70116e-12 5.53926e-12 0 3.66673e-12 1.47107e-11 
0 0 5.69247e-12 1.03875e-11 0 0 7.08544e-12 0 9.7323e-13 
0 1.44033e-11 6.52095e-12 0 3.56217e-12 0 0 1.28461e-11 0 
1.91097e-12 6.8851e-12 0 9.47615e-12 0 7.49998e-14 0 0 0 
0 8.54664e-12 5.43648e-12 0 5.09296e-12 1.84916e-12 2.53589e-12 4.90621e-12 0 
0 0 2.38304e-12 0 1.63907e-12 1.70831e-12 1.85078e-12 6.21782e-12 0 
5.09338e-12 7.82819e-12 3.08738e-12 6.57334e-12 0 5.27991e-12 0 0 0 
0 0 2.53589e-12 4.99978e-12 2.51583e-12 0 3.88273e-12 7.28258e-12 1.09531e-12 
8.76603e-12 0 5.91358e-12 0 5.11291e-12 0 1.1077e-11 4.29506e-12 2.45029e-12 
0 1.19889e-11 1.13426e-11 1.33632e-11 1.54668e-12 0 0 2.37527e-12 0 
0 0 2.4667e-12 0 0 4.64353e-12 7.39644e-12 2.39906e-12 4.90079e-12 
0 2.55765e-12 0 0 5.62326e-12 1.06907e-12 0 0 4.79822e-12 
2.7108e-12 0 4.69927e-12 7.25288e-12 3.82805e-12 7.86375e-12 0 8.13327e-14 4.04044e-12 
8.49374e-12 0 3.53274e-12 0 1.26595e-11 0 5.82741e-12 3.80124e-12 0 
0 3.54649e-12 9.02536e-12 1.51214e-11 7.11109e-12 3.14548e-13 1.5091e-11 0 0 
0 0 4.01784e-12 5.08407e-12 0 0 0 5.10391e-12 0 
0 6.92688e-12 0 5.0903e-13 0 8.28299e-12 3.40534e-12 0 0 
4.63329e-13 8.55299e-12 0 0 6.86918e-12 0 1.28007e-11 0 0 
0 1.16104e-11 1.04714e-12 9.3047e-12 0 1.19552e-12 0 5.36348e-12 0 
0 1.62166e-13 6.17747e-12 0 0 1.81886e-12 1.77315e-13 0 0 
6.68251e-12 0 0 0 1.42923e-12 2.93655e-12 0 0 6.5428e-12 
0 1.05413e-12 1.29384e-12 0 0 1.83213e-11 8.84144e-13 4.71057e-12 0 
0 0 3.48363e-12 0 0 0 3.85681e-13 0 1.37614e-11 
0 0 0 0 2.50133e-13 0 0 1.07658e-11 0 
3.40179e-12 0 0 0 0 6.02028e-12 0 4.15498e-12 1.13042e-11 
0 3.41137e-12 3.81801e-12 3.08327e-12 0 0 0 0 0 
9.43542e-12 1.84121e-12 0 0 4.17192e-13 4.78617e-12 3.11988e-12 3.85173e-12 5.46999e-12 
0 0 0 2.33227e-12 3.70153e-12 0 4.49644e-12 0 0 
0 0 0 2.72608e-12 1.09054e-11 4.94641e-12 1.18628e-12 8.5763e-12 0 
0 6.25243e-12 6.31492e-12 1.31305e-12 0 0 5.3615e-12 0 2.56791e-13 
3.40811e-12 2.2586e-12 0 0 0 3.40069e-12 0 0 6.26111e-12 
0 0 8.75948e-12 1.39781e-12 5.15712e-12 6.21192e-12 2.24412e-12 1.74662e-12 5.89696e-12 
0 0 0 0 0 6.1306e-12 4.0748e-13 0 0 
1.07501e-11 1.00879e-12 9.62491e-13 1.86355e-12 0 1.03505e-11 6.65952e-12 9.6465e-12 7.8165e-12 
0 1.71978e-12 0 0 0 1.036e-12 9.56547e-12 0 0 
0 0 0 1.02768e-12 4.12337e-12 0 0 0 0 
5.8078e-12 0 0 0 0 5.34544e-13 3.43733e-12 1.30433e-12 5.0856e-12 
1.18946e-12 2.01958e-12 1.71962e-12 0 5.22524e-12 0 0 3.38019e-12 4.6286e-12 
0 0 0 1.29443e-12 1.1778e-13 0 1.34033e-12 0 3.79671e-12 
5.27134e-12 0 0 3.04423e-12 7.79975e-13 0 0 0 2.97931e-12 
0 0 0 0 2.81531e-12 0 2.9848e-12 5.23231e-12 0 
8.21048e-13 0 2.35726e-12 0 0 0 5.56615e-13 8.06036e-12 1.64932e-11 
0 0 0 0 0 0 0 7.47812e-12 8.06928e-12 
3.25392e-12 0 5.19768e-12 1.3371e-11 0 0 1.46736e-12 1.15268e-11 1.24892e-11 
0 0 0 7.44543e-12 6.0909e-12 0 5.10902e-12 5.92331e-15 0 
0 0 0 0 5.56262e-12 4.05589e-12 9.68423e-12 0 0 
3.26527e-12 0 2.01432e-13 1.56259e-11 0 0 8.16683e-12 0 9.84175e-13 
4.20963e-12 1.80575e-12 0 0 4.748e-12 2.63752e-12 0 9.26694e-12 2.00554e-12 
0 3.89602e-12 5.3804e-12 0 0 0 1.53724e-12 5.31184e-12 0 
1.45842e-11 0 6.79145e-12 6.82518e-13 0 0 0 0 0 
1.2139e-12 0 2.45978e-12 9.76261e-12 3.4112e-12 6.95444e-12 1.72771e-12 0 3.43008e-12 
0 0 0 8.6427e-12 1.48578e-12 0 1.10823e-11 4.13445e-12 0 
0 2.37523e-12 2.08402e-12 0 0 1.3932e-11 1.52566e-12 0 6.59051e-12 
0 1.78789e-13 0 5.40606e-12 0 2.93781e-12 0 0 0 
0 4.45439e-12 0 6.57185e-12 0 2.2514e-12 6.72858e-12 0 7.62602e-12 
0 2.78948e-12 2.4457e-12 0 0 2.84176e-12 6.00083e-12 2.18736e-12 4.33149e-12 
0 1.73168e-12 0 4.39461e-12 0 9.79608e-12 4.71994e-12 6.11942e-12 2.20825e-13 
0 0 5.17208e-12 2.57072e-12 0 0 5.59411e-12 7.89271e-12 0 
3.69588e-12 0 0 6.0788e-12 0 8.22307e-12 7.32808e-12 0 4.61461e-12 
0 0 7.21569e-12 0 0 3.07635e-12 5.00102e-12 0 0 
5.97302e-12 0 0 0 0 2.28936e-12 3.4712e-12 0 0 
3.58849e-12 8.88742e-12 0 0 0 0 1.56022e-12 0 6.49665e-12 
8.28535e-12 0 0 0 5.97403e-12 0 0 1.51198e-12 5.8671e-12 
0 3.67112e-12 0 7.97281e-12 0 6.28997e-13 3.1414e-12 6.24442e-12 0 
0 0 0 3.5309e-12 0 0 0 0 9.89541e-13 
0 1.1538e-11 2.82304e-12 6.98404e-12 0 0 0 8.08832e-12 2.52075e-12 
8.34375e-12 0 0 0 3.42331e-12 2.47241e-12 0 6.51768e-13 0 
0 1.86437e-12 0 4.00167e-12 0 0 2.1767e-12 0 0 
1.10805e-11 9.11595e-12 8.78869e-12 0 0 1.13652e-12 1.55281e-12 0 1.16058e-12 
4.48717e-12 0 3.27486e-13 4.75723e-12 0 1.28441e-11 5.27655e-13 9.70704e-12 1.87514e-12 
0 7.57914e-12 0 1.84236e-11 2.37791e-12 4.08247e-12 0 5.10266e-12 0 
8.97553e-12 8.69833e-12 0 0 0 2.52099e-12 1.12263e-11 5.44409e-12 5.40268e-12 
0 1.76957e-12 1.88486e-12 5.62705e-13 7.33773e-12 7.56605e-12 1.04407e-11 1.08162e-12 0 
0 5.59826e-12 8.52272e-12 0 0 0 7.96798e-12 0 0 
0 4.92857e-12 0 0 0 6.65622e-12 9.27102e-12 4.90494e-12 1.43321e-12 
0 1.98472e-12 0 6.5715e-13 8.29993e-13 5.04723e-12 2.08131e-12 7.41085e-12 0 
0 0 0 1.24137e-12 7.83484e-13 3.81708e-12 0 0 0 
4.78901e-12 0 6.61528e-12 6.09992e-12 3.77024e-12 1.22441e-12 0 3.44574e-12 1.09246e-12 
2.8643e-12 1.13843e-11 1.02234e-12 0 0 7.84684e-12 4.25638e-12 0 0 
1.17713e-12 8.99123e-12 1.66171e-12 0 0 7.69126e-12 4.3829e-12 3.76547e-12 7.04185e-12 
6.39155e-12 7.84872e-13 3.98715e-12 3.40601e-13 1.47765e-12 0 0 0 0 
9.45184e-12 0 3.78809e-12 6.51016e-12 3.3292e-12 0 4.84125e-12 4.29513e-12 0 
0 0 2.67437e-12 3.43102e-12 4.4264e-12 3.10278e-12 0 0 0 
0 1.16666e-11 3.43117e-12 0 0 5.85102e-12 0 4.5376e-12 2.70003e-12 
4.18869e-12 9.12106e-13 0 5.90699e-12 5.66139e-12 2.69538e-12 0 0 8.94064e-12 
9.28378e-12 1.65249e-12 0 6.56805e-12 0 0 6.65516e-12 3.55571e-12 0 
1.1696e-11 0 8.84385e-12 0 3.08942e-12 8.21608e-12 6.47433e-13 0 6.0085e-13 
9.07437e-12 7.67453e-12 0 5.92152e-12 0 1.07426e-11 0 0 1.42809e-11 
4.07703e-12 4.25213e-12 0 0 2.79968e-12 0 1.44325e-12 0 0 
4.86414e-12 3.22384e-12 3.1736e-12 0 2.09674e-12 3.13314e-12 4.81233e-12 7.1709e-12 5.33482e-12 
0 3.40024e-12 3.77014e-12 6.66717e-12 2.2681e-12 0 3.73321e-12 2.25949e-13 0 
2.32101e-12 9.09781e-12 6.37455e-12 6.50554e-15 7.14016e-12 1.24221e-11 3.42646e-12 0 8.7131e-12 
5.21211e-12 6.66906e-12 0 7.15727e-13 0 1.7749e-12 5.20714e-12 0 1.13524e-12 
4.25487e-12 7.71021e-12 0 0 0 0 0 3.43864e-12 0 
2.22728e-12 6.00539e-12 0 5.13447e-12 0 6.53103e-13 0 4.05197e-12 0 
5.03944e-12 0 8.88118e-12 0 0 2.95499e-12 0 0 4.28613e-12 
0 5.36236e-13 0 0 9.64625e-12 0 1.09881e-11 1.99472e-12 0 
5.46182e-13 0 2.11707e-12 6.32581e-12 3.16405e-12 0 1.00462e-11 0 0 
2.00865e-12 0 0 0 0 0 1.55139e-12 2.3956e-12 1.10436e-11 
0 0 1.71876e-12 3.96288e-12 0 0 9.8694e-12 6.06884e-12 2.10272e-11 
7.5681e-12 4.71634e-12 0 6.56214e-12 0 2.75774e-12 7.65819e-12 6.53182e-12 0 
0 0 6.51025e-12 3.99219e-12 4.28269e-12 0 0 0 0 
0 0 0 2.36239e-12 0 3.08717e-12 0 1.78716e-12 0 
8.21639e-12 7.8214e-13 0 0 0 0 0 0 6.86392e-12 
0 9.05457e-12 0 3.33271e-12 0 8.27287e-12 7.19947e-13 4.61709e-12 7.24549e-12 
5.66676e-12 0 0 5.47126e-12 0 0 0 3.89127e-12 7.13046e-12 
0 1.00926e-11 0 0 0 5.57118e-12 1.19655e-12 1.63078e-12 0 
2.21672e-12 5.42568e-13 0 7.02819e-12 3.68355e-13 0 2.0983e-12 1.00268e-12 2.09817e-12 
0 1.13476e-13 0 2.49479e-12 1.12978e-11 0 6.89162e-12 1.43688e-12 3.95554e-12 
2.38156e-12 0 1.8763e-11 0 0 0 2.38981e-12 1.348e-12 3.02135e-12 
6.97088e-12 4.98208e-12 2.33126e-12 6.48989e-12 0 0 8.4157e-12 0 0 
0 0 0 0 1.2061e-12 0 5.26961e-12 8.63548e-12 0 
1.30511e-11 9.84978e-12 8.43518e-12 0 0 0 2.99632e-12 0 7.41424e-12 
7.95092e-12 0 8.11542e-12 0 0 0 0 0 0 
1.73007e-12 0 0 1.66657e-12 2.5321e-14 0 0 7.07704e-12 3.54222e-12 
8.48624e-12 0 0 0 0 0 0 1.33776e-12 4.67293e-13 
0 7.0519e-14 2.35075e-12 0 0 3.60844e-12 4.1356e-12 7.67998e-12 7.33512e-12 
0 4.49325e-12 0 0 4.28743e-12 1.68707e-12 0 0 1.29964e-13 
0 0 3.3274e-12 2.8191e-13 2.23707e-12 2.88311e-12 0 0 5.45218e-12 
0 0 2.992e-12 6.04481e-13 0 8.7329e-12 0 6.69494e-12 4.90979e-12 
0 0 3.32177e-12 4.14185e-12 6.29872e-13 7.67536e-14 0 0 2.59389e-12 
0 0 4.32119e-12 8.40407e-12 0 4.99548e-12 0 0 1.0211e-11 
0 0 0 3.5806e-12 0 0 1.09963e-12 0 0 
0 0 3.40035e-12 0 0 1.82736e-12 6.53112e-12 3.55332e-13 0 
7.07571e-12 4.59334e-12 6.40933e-12 0 0 0 5.32006e-12 5.99063e-12 2.75437e-12 
5.03747e-12 0 0 9.64714e-12 2.10538e-12 1.81616e-13 1.35053e-11 0 1.0465e-12 
0 5.29276e-12 4.7232e-12 3.64216e-12 1.62221e-12 0 0 4.40829e-12 0 
4.83935e-12 6.75624e-12 1.30362e-12 1.9723e-12 0 0 0 0 1.70841e-12 
9.27061e-12 0 1.37236e-12 3.56561e-12 5.72084e-12 2.97959e-12 0 0 6.13769e-12 
1.09099e-12 0 0 0 0 0 0 2.67582e-13 6.91602e-12 
0 0 6.90931e-12 0 0 0 0 4.58772e-12 1.93808e-12 
0 7.27712e-12 1.74084e-11 3.92864e-12 3.08649e-13 3.90284e-12 0 0 5.84723e-12 
8.92459e-13 4.94182e-12 0 0 5.31224e-12 0 0 3.4487e-12 0 
0 0 4.71784e-12 0 5.42835e-12 6.3568e-12 8.42477e-12 0 0 
0 1.40972e-12 0 7.29348e-12 0 0 1.25036e-12 1.01219e-11 2.45039e-12 
0 7.95582e-12 0 6.88086e-12 0 3.43547e-12 4.8365e-12 6.80984e-12 4.19011e-12 
0 1.8671e-12 0 4.04406e-12 3.98336e-13 0 1.44689e-12 0 4.055e-12 
0 0 4.10272e-12 0 8.8448e-12 0 5.844e-12 0 5.53001e-12 
0 0 0 6.25223e-13 0 0 0 0 8.16539e-13 
5.54367e-12 8.55072e-12 0 3.0798e-12 6.81056e-12 2.21408e-12 6.83253e-12 0 6.92447e-12 
0 0 0 7.06734e-12 1.12101e-12 0 0 0 7.7195e-12 
1.25278e-11 2.64717e-13 0 5.8385e-13 7.28612e-13 0 0 0 0 
2.26654e-12 3.10322e-12 4.35928e-12 7.33955e-12 0 0 0 1.61161e-11 0 
0 0 2.67991e-12 0 7.4652e-13 0 0 6.43995e-13 0 
5.11449e-12 6.10234e-12 5.14907e-12 8.40797e-12 0 1.04207e-11 0 7.77106e-12 1.73085e-13 
0 2.47898e-12 0 0 9.47497e-12 0 2.99039e-12 0 0 
1.10311e-11 5.09649e-12 0 4.09787e-12 1.30249e-11 0 6.08004e-12 0 0 
9.35731e-12 0 0 8.26304e-13 0 0 4.94285e-12 4.62104e-12 0 
0 7.45108e-13 0 6.12826e-12 1.21726e-11 4.89251e-12 5.65134e-12 0 0 
4.17821e-12 1.28297e-12 0 0 1.01824e-12 0 2.84163e-12 0 0 
0 4.89135e-12 0 8.98561e-12 2.46506e-12 0 4.54482e-13 7.64491e-12 4.09577e-12 
5.65289e-12 3.90204e-13 0 0 7.62417e-12 1.12223e-11 0 3.63846e-12 1.13446e-12 
0 1.24489e-12 0 1.12212e-11 1.71422e-12 0 0 0 1.94664e-12 
0 0 3.2611e-12 0 0 0 0 7.39166e-13 6.18553e-12 
9.73148e-12 0 0 0 4.29835e-12 0 3.46059e-12 0 0 
1.23777e-11 1.94912e-12 0 0 2.58227e-13 8.15763e-12 0 0 4.93899e-13 
0 2.84574e-12 0 0 0 0 2.80481e-12 1.43616e-12 1.28219e-12 
0 0 3.02815e-12 0 0 4.65095e-13 0 0 0 
0 5.44658e-13 5.415e-12 0 0 2.36641e-12 5.93087e-12 7.41098e-12 1.26191e-12 
0 3.40211e-12 0 0 2.80658e-12 0 0 0 1.15953e-11 
0 1.1902e-11 9.07924e-12 1.97621e-12 0 0 0 0 8.25819e-13 
0 7.72665e-12 0 6.44726e-12 0 2.06354e-12 3.73145e-12 0 0 
0 1.12812e-11 0 0 0 5.36592e-12 5.54981e-12 0 6.18621e-12 
7.62112e-12 8.61071e-12 0 7.00932e-12 0 3.078e-12 2.59367e-12 7.30805e-13 4.59965e-12 
0 0 8.4477e-12 0 0 0 0 9.89325e-12 0 
0 0 0 0 0 5.38426e-12 0 0 1.1531e-11 
1.12372e-11 0 3.68012e-13 0 0 6.30514e-13 0 6.62645e-12 0 
0 0 0 0 8.00888e-12 0 5.05103e-12 0 5.27e-12 
0 7.40339e-13 0 6.08697e-13 3.52653e-12 0 0 3.61543e-12 0 
0 3.4861e-13 2.77859e-12 7.61542e-12 0 9.93855e-12 0 7.35828e-12 1.21644e-12 
0 6.43079e-12 2.90675e-13 0 5.64199e-12 0 0 6.09313e-12 7.17728e-12 
0 1.6897e-11 0 0 5.599e-12 7.95199e-12 5.35543e-12 0 1.26065e-11 
5.48436e-12 0 4.30899e-12 0 0 4.50166e-12 7.60662e-12 0 0 
1.51257e-12 0 8.86733e-12 0 2.4186e-12 0 0 0 0 
6.56661e-12 0 7.43934e-12 0 7.74701e-13 0 1.23535e-12 5.77104e-12 2.18788e-12 
4.48112e-12 0 7.26706e-12 0 0 1.11739e-11 8.44551e-12 2.00058e-12 1.71273e-12 
0 0 0 0 0 1.63173e-12 1.02243e-12 6.85472e-12 3.87444e-12 
1.85511e-12 7.64063e-13 0 0 0 0 2.87454e-12 1.10814e-11 7.86876e-13 
2.46662e-12 0 0 0 1.02494e-11 1.1604e-12 0 0 0 
0 7.12333e-12 0 8.559e-12 0 5.21595e-12 0 0 6.74921e-12 
3.95824e-13 8.85834e-13 2.454e-12 2.35554e-12 3.61338e-12 0 0 4.93233e-12 4.84368e-12 
4.20933e-12 0 0 4.13188e-12 7.51582e-12 0 0 3.24291e-12 0 
0 9.36182e-12 0 1.2923e-12 0 4.59465e-12 0 0 0 
8.47723e-12 2.00514e-12 1.5979e-12 0 0 0 0 0 0 
2.04402e-12 3.34125e-13 9.13034e-12 0 0 0 3.44223e-12 0 5.61946e-12 
0 0 8.11824e-13 0 0 0 0 4.66494e-13 6.64666e-13 
1.29316e-12 7.05633e-12 0 2.54471e-13 5.71965e-12 4.00769e-12 0 7.07779e-13 0 
0 2.01446e-12 0 6.22139e-12 0 0 8.99332e-12 6.09774e-12 0 
0 2.85794e-12 7.50803e-12 2.66499e-12 2.0003e-12 1.03828e-11 0 1.21754e-11 5.86116e-12 
0 0 1.67285e-12 1.43103e-11 0 0 0 6.24845e-12 6.11199e-12 
0 0 0 0 0 5.85579e-12 3.18266e-12 0 0 
0 2.69772e-12 3.93435e-12 8.66223e-12 1.89681e-12 0 0 3.47642e-12 0 
8.15753e-12 0 7.66627e-12 0 2.36715e-12 4.64443e-12 1.31184e-11 0 0 
0 0 0 0 8.043e-12 0 1.13706e-11 3.20446e-12 0 
1.39787e-11 0 0 0 1.29272e-12 0 0 6.4733e-12 0 
0 8.05263e-13 0 0 9.41662e-12 0 0 0 0 
0 0 6.20581e-12 0 4.92344e-12 0 8.51022e-13 0 0 
8.07522e-12 1.24513e-11 0 1.3715e-12 0 3.48778e-12 0 0 8.18278e-13 
0 0 0 0 8.52476e-12 9.2111e-12 2.45387e-12 7.26457e-12 0 
0 2.48544e-12 5.93956e-12 2.80048e-12 0 0 1.53487e-12 2.71822e-12 0 
5.54806e-13 0 0 0 0 2.60809e-12 9.05303e-12 4.28812e-12 5.30469e-12 
0 1.23309e-11 0 3.54188e-12 0 3.33202e-12 2.16879e-12 9.60999e-12 7.54064e-12 
2.47152e-12 0 4.5512e-12 0 7.36826e-12 5.47073e-12 0 6.44283e-12 0 
0 1.49174e-11 0 0 0 0 1.72631e-12 2.08764e-12 1.73856e-12 
0 3.59395e-12 0 5.53948e-12 3.85733e-12 0 0 0 5.34357e-12 
5.74264e-12 2.64902e-12 0 3.96753e-12 0 3.75572e-12 3.85147e-12 0 0 
0 0 0 0 0 0 0 5.12207e-12 0 
2.59099e-12 0 0 7.39314e-12 3.26799e-12 4.09525e-12 2.72268e-12 0 0 
0 5.36602e-12 0 1.46666e-12 0 0 0 0 0 
2.78993e-12 1.76616e-13 0 6.26634e-12 1.2496e-12 0 6.68619e-12 0 0 
2.09143e-12 0 3.67355e-12 0 0 9.29068e-14 0 0 0 
2.05034e-12 0 0 0 6.02144e-12 3.40726e-12 6.937e-12 0 0 
1.11709e-11 0 7.58279e-12 0 0 0 0 0 0 
0 4.91197e-13 7.00087e-12 4.66494e-12 0 0 0 0 1.02399e-12 
8.21318e-12 4.70906e-12 7.13101e-12 4.15815e-12 1.72002e-11 0 0 0 0 
0 0 8.91511e-12 1.27936e-12 0 0 0 3.11908e-12 0 
0 1.09112e-12 4.65772e-12 1.20865e-12 0 7.21746e-12 0 6.66038e-12 5.69403e-12 
0 0 4.15308e-12 0 0 6.51142e-12 0 3.70047e-12 5.488e-12 
0 6.60319e-12 1.01176e-11 0 5.14869e-12 0 0 4.68508e-12 0 
5.84277e-12 6.60305e-12 3.29762e-12 0 0 3.32295e-12 0 8.13593e-12 0 
6.86829e-12 4.07167e-13 1.62781e-11 0 9.47885e-13 0 7.14093e-12 1.33509e-11 0 
3.23358e-12 0 1.80939e-12 6.85358e-13 1.1547e-11 2.98603e-12 0 3.65922e-12 6.93824e-13 
4.33773e-12 9.2087e-13 0 0 7.77835e-12 3.14727e-12 4.18243e-12 9.6602e-12 0 
0 0 0 1.03265e-12 0 0 1.55497e-12 0 1.63924e-12 
0 0 0 4.92668e-13 3.41441e-12 0 3.39534e-13 0 1.202e-11 
0 6.29327e-12 0 6.48932e-13 1.00368e-11 0 4.69948e-12 0 0 
0 1.54038e-12 0 0 6.88066e-13 0 0 0 6.63055e-12 
2.95824e-12 0 0 0 0 6.16814e-12 3.43681e-12 6.20168e-12 4.05623e-13 
2.6385e-12 2.98568e-12 0 4.68768e-13 5.36901e-12 0 1.22431e-11 2.56187e-12 1.17265e-12 
2.46844e-12 4.16744e-12 5.23155e-12 2.67369e-12 0 2.92425e-12 9.0533e-13 2.97491e-12 0 
4.00425e-12 7.1495e-12 3.05312e-12 0 1.10881e-11 0 0 1.32216e-11 0 
0 4.51542e-12 7.68888e-13 6.02992e-13 0 0 3.50168e-12 0 0 
4.10557e-12 4.90448e-12 5.33333e-14 4.07537e-12 2.24037e-13 0 4.13996e-12 0 0 
3.23562e-12 0 3.41061e-12 2.11508e-12 0 0 0 2.45787e-12 0 
4.22847e-13 0 0 6.05523e-12 0 0 0 6.83116e-12 2.22822e-12 
4.13848e-12 1.22769e-12 2.49062e-12 0 0 1.15684e-11 6.4879e-12 5.00961e-12 3.38059e-12 
3.88882e-13 0 1.34626e-11 5.92301e-12 1.11356e-12 0 0 5.77365e-12 1.06753e-11 
0 0 0 2.49968e-12 0 0 0 1.09481e-11 0 
3.52894e-12 1.22064e-12 4.40477e-12 0 6.18818e-12 1.90552e-12 0 0 2.85283e-12 
1.11643e-12 0 0 0 0 4.75632e-12 0 0 0 
1.30396e-12 0 4.42512e-12 0 0 0 0 0 0 
0 0 1.29955e-11 0 0 0 0 9.44196e-13 0 
3.435e-12 0 6.85083e-12 0 0 2.19629e-12 1.95885e-12 0 8.24661e-12 
1.08804e-11 0 0 0 1.31544e-12 6.6968e-13 0 0 0 
0 0 0 7.90335e-12 9.22039e-12 1.26468e-11 4.75667e-13 5.39898e-12 0 
5.87463e-12 0 0 0 8.00353e-12 0 0 0 3.93605e-12 
0 3.12657e-12 3.39028e-12 0 0 1.42507e-11 0 7.76972e-12 2.20754e-12 
0 0 1.22537e-11 3.9273e-12 3.03882e-13 9.61956e-12 0 9.9093e-12 0 
0 0 0 9.32611e-12 4.17197e-12 3.96911e-12 2.56248e-13 3.8173e-13 6.50363e-13 
0 0 6.47392e-12 1.13192e-12 2.62159e-12 2.23676e-12 3.99261e-12 5.67685e-13 1.69489e-12 
4.47433e-12 0 3.64651e-12 0 0 0 0 0 3.77647e-12 
6.4544e-12 0 1.59212e-12 2.44716e-12 0 0 7.6109e-12 6.25848e-12 0 
3.67509e-12 5.52404e-12 2.17524e-12 0 1.33298e-11 0 1.58879e-12 0 2.18559e-12 
1.43513e-12 1.65952e-12 5.18934e-12 4.43811e-12 0 7.59534e-12 0 0 3.50068e-12 
0 6.86767e-12 5.2474e-12 0 5.59263e-12 2.08822e-12 0 0 5.32221e-12 
3.19811e-12 9.55792e-12 6.06765e-12 0 1.03888e-13 2.00073e-12 1.87205e-12 0 0 
1.07339e-11 9.64133e-13 0 4.43573e-12 0 0 1.54251e-12 6.17801e-13 0 
0 0 0 2.00782e-12 0 1.81162e-12 0 6.38347e-12 0 
0 0 0 0 0 0 0 0 0 
0 0 1.00741e-12 7.90163e-12 1.48941e-12 4.74982e-12 4.91046e-12 3.32332e-12 3.07503e-12 
2.96532e-12 0 0 0 2.38328e-12 9.38929e-12 1.34045e-12 0 3.18966e-12 
0 6.66799e-12 0 7.692e-13 3.98581e-12 0 0 0 2.48111e-12 
0 0 0 0 6.27515e-13 2.01817e-12 0 6.95987e-12 5.08277e-12 
0 1.48381e-12 1.26607e-11 0 4.32859e-12 1.7234e-12 7.68197e-13 0 0 
0 9.89133e-12 1.99473e-12 7.79494e-13 0 0 9.633e-12 0 1.02296e-11 
0 5.34348e-12 9.49799e-13 9.11616e-13 0 1.28181e-12 0 3.31807e-12 0 
9.01751e-12 2.47631e-12 3.92088e-12 0 1.98371e-12 1.71516e-11 0 1.19074e-12 0 
5.58025e-12 5.72333e-12 0 0 0 1.39657e-13 1.35775e-11 0 0 
0 2.89877e-12 0 4.32466e-12 0 2.5476e-12 0 0 8.14317e-12 
0 0 9.36415e-12 1.2887e-12 0 4.34597e-12 6.52706e-12 0 0 
6.69088e-12 1.74297e-12 4.59147e-12 0 0 1.5879e-12 4.50489e-12 0 2.8787e-12 
6.24213e-12 5.62565e-14 6.06437e-12 0 3.6578e-12 0 1.76305e-12 3.93995e-12 2.0294e-13 
9.16172e-12 0 0 1.01092e-11 1.48656e-12 0 0 2.63613e-12 0 
0 0 0 3.65761e-12 9.52024e-12 0 0 0 1.41892e-12 
1.19701e-12 1.02968e-11 4.85277e-12 0 0 0 0 1.71342e-12 9.37142e-14 
0 1.49179e-12 0 0 4.67626e-12 0 3.04412e-12 9.47837e-12 5.33171e-12 
6.04865e-12 4.21095e-12 4.11164e-12 1.03597e-11 2.03825e-12 2.1964e-12 2.52465e-12 0 0 
1.08941e-11 1.02663e-12 0 0 0 0 1.1416e-11 0 0 
0 0 0 0 0 3.93568e-12 4.25363e-12 0 7.15073e-12 
1.18393e-11 0 0 0 6.60695e-12 0 0 2.02289e-12 0 
0 0 0 1.49274e-12 0 0 1.01174e-11 0 0 
4.15151e-12 0 0 0 0 0 4.73239e-12 0 0 
6.28815e-12 0 6.86416e-12 0 0 0 0 0 0 