# vtk DataFile Version 5.1
vtk output
ASCII
DATASET STRUCTURED_POINTS
DIMENSIONS 250 250 1
SPACING 1 1 1
ORIGIN 0 0 0
POINT_DATA 62500
FIELD FieldData 6
feature_1 1 62500 float
1.67704e-12 0 6.89282e-12 1.63651e-12 0 1.37957e-12 7.0309e-12 1.27859e-11 0 
0 0 0 0 3.25389e-12 5.37273e-12 0 0 2.9097e-12 
1.62577e-12 0 4.37444e-12 0 1.07249e-12 5.90121e-13 7.00863e-12 0 4.60998e-12 
4.19562e-12 0 3.4245e-12 0 6.71722e-12 0 6.41514e-12 1.61182e-12 7.0495e-13 
0 0 3.39407e-12 0 7.61042e-12 3.2985e-12 2.77021e-12 3.57262e-13 1.53658e-13 
0 2.61971e-12 0 2.72517e-12 8.81739e-12 4.64667e-12 5.06461e-12 0 0 
2.17265e-12 0 2.31488e-12 3.47456e-14 0 0 8.44247e-12 0 0 
0 0 1.50192e-11 0 0 0 5.21054e-12 7.08038e-12 5.46369e-12 
0 8.2138e-13 5.32971e-13 0 0 7.07086e-12 0 0 0 
5.74223e-12 0 8.66801e-13 6.6225e-12 0 0 8.35975e-12 5.62415e-12 5.64442e-13 
5.85573e-12 0 0 0 0 0 0 0 2.32515e-12 
1.28264e-11 4.19725e-12 0 1.47195e-12 0 1.23708e-12 0 0 0 
6.21499e-12 7.99141e-12 2.82263e-12 0 0 5.57042e-12 0 0 6.525e-12 
5.35041e-12 0 0 7.9745e-12 0 3.93869e-12 0 0 2.89728e-12 
7.93242e-12 0 2.86145e-12 3.98334e-12 0 0 0 0 0 
0 0 1.93377e-12 0 0 1.16202e-11 0 0 4.43209e-13 
0 2.27651e-12 6.56593e-12 0 0 0 1.20802e-11 8.99281e-12 2.41512e-12 
0 0 0 4.76831e-14 4.75131e-12 1.44143e-12 0 4.03847e-12 0 
8.06817e-12 7.1398e-12 0 0 0 0 8.38906e-12 1.93657e-12 0 
0 2.14862e-12 1.21777e-11 5.96998e-12 4.34152e-12 0 2.53317e-13 9.76958e-14 0 
0 0 0 0 0 0 8.92239e-12 3.02345e-12 0 
8.10087e-12 3.69904e-12 0 6.92929e-12 0 0 0 0 3.63359e-12 
0 1.26681e-12 4.38713e-12 8.71595e-13 0 2.40032e-12 0 3.09907e-13 0 
0 1.02135e-12 0 1.35063e-11 8.52764e-13 2.00355e-12 4.62144e-12 5.92095e-12 2.91589e-13 
8.31209e-12 0 0 0 3.1051e-12 3.68302e-12 2.78451e-13 9.51127e-13 0 
0 0 0 2.64677e-12 0 0 4.85533e-12 0 1.26112e-11 
5.82156e-12 5.53322e-12 0 3.55338e-12 0 1.96179e-12 0 4.42186e-12 6.04004e-12 
2.95847e-12 1.00916e-11 0 0 0 0 3.15736e-12 5.73347e-12 0 
1.80839e-12 4.667e-12 0 0 0 0 1.71068e-12 0 0 
1.1145e-12 0 8.54592e-12 0 0 8.40111e-12 0 9.00917e-13 0 
0 0 0 1.16697e-12 2.02664e-12 0 0 1.08183e-11 1.75791e-11 
0 0 3.38763e-12 8.30383e-12 0 2.58063e-13 0 2.69259e-12 1.06886e-12 
3.18506e-12 0 9.20874e-14 4.69813e-13 0 0 0 7.90285e-12 0 
9.82827e-12 1.37341e-11 2.38876e-12 6.49802e-12 0 0 2.48815e-12 0 4.48672e-12 
0 0 0 0 0 1.72098e-12 2.7008e-12 0 0 
0 0 0 0 6.57397e-12 0 0 0 0 
0 0 6.34596e-12 2.76349e-13 0 0 0 0 5.00299e-12 
0 7.10728e-12 3.48274e-12 0 1.04293e-11 0 9.37918e-12 0 0 
7.78776e-13 1.79311e-12 0 0 3.25243e-12 0 0 0 0 
0 0 5.3019e-12 0 2.88823e-12 0 0 1.48574e-11 5.4951e-12 
4.15249e-12 0 7.33509e-12 5.42372e-12 1.011e-11 0 0 0 0 
0 0 0 4.60761e-12 0 0 0 0 0 
0 0 0 1.54474e-11 0 0 4.95018e-12 9.409e-12 0 
9.28167e-13 0 1.23206e-12 1.91225e-13 0 0 0 1.79206e-12 7.08313e-12 
0 0 0 0 0 2.18524e-12 0 2.96227e-12 0 
3.60366e-12 0 0 9.6561e-13 4.95875e-12 3.87119e-12 6.24913e-12 0 0 
0 1.43567e-12 0 7.34089e-12 0 0 0 1.76943e-12 0 
0 1.25684e-11 0 6.02837e-12 3.29568e-12 1.36469e-13 6.74016e-12 2.24147e-13 1.22595e-12 
2.18e-12 6.85258e-12 1.73589e-12 0 0 1.26444e-11 1.96022e-13 6.69826e-13 1.1389e-12 
0 2.93513e-12 0 0 0 0 7.36576e-12 0 0 
1.12395e-11 2.51422e-12 1.11913e-12 5.19431e-12 2.0503e-12 6.73847e-12 0 0 0 
0 1.47875e-12 1.033e-13 1.22705e-11 0 6.57767e-12 5.0874e-12 4.82327e-12 3.07289e-12 
0 7.11884e-12 1.12576e-11 9.28091e-12 5.09406e-12 5.675e-12 0 3.54434e-12 3.81516e-12 
0 0 3.15052e-12 0 1.92938e-13 0 0 0 0 
7.49651e-12 4.90282e-12 2.18618e-12 0 0 2.48556e-12 0 5.27925e-13 0 
6.11654e-12 3.66984e-12 4.55375e-12 6.33018e-12 9.94424e-13 3.70727e-12 0 2.76881e-12 3.76037e-12 
8.27118e-13 0 0 0 0 0 7.81319e-12 0 0 
1.10082e-13 1.71222e-12 0 8.91188e-13 4.34296e-13 0 0 0 0 
7.45831e-14 8.08006e-12 1.0609e-11 0 0 3.19486e-13 6.66609e-13 1.24881e-12 4.87663e-12 
0 0 7.08665e-12 5.87748e-12 0 3.34312e-13 1.48642e-11 0 0 
0 0 2.48667e-12 1.31176e-12 3.51725e-12 0 0 0 8.33429e-12 
2.91935e-12 0 0 0 4.35067e-12 0 1.99489e-12 0 4.38791e-12 
0 1.45076e-11 3.34261e-12 5.35893e-13 1.66348e-12 3.25099e-12 5.29136e-12 3.67781e-12 1.08624e-12 
0 0 0 4.16253e-13 0 0 3.14699e-12 0 1.84861e-12 
0 0 1.01782e-11 0 6.42699e-12 0 4.06992e-12 9.50447e-13 5.59519e-13 
0 0 0 9.86599e-12 1.12457e-11 0 1.36096e-11 2.85811e-12 0 
0 1.47363e-12 0 0 8.59992e-12 6.0728e-12 0 3.48211e-12 0 
0 0 3.61619e-12 4.27432e-12 6.51633e-12 9.25548e-12 1.13714e-11 7.39813e-12 0 
2.52182e-12 0 0 1.30582e-12 5.89376e-12 0 0 5.42383e-12 2.77918e-12 
2.58385e-12 0 1.23236e-12 9.50435e-12 0 7.52939e-12 6.08721e-13 0 4.35126e-15 
2.75961e-13 1.72809e-11 0 2.78871e-12 0 0 0 3.09025e-12 0 
0 0 7.65739e-12 1.37442e-11 7.90276e-13 0 5.18249e-12 1.17157e-11 3.65864e-12 
0 3.04736e-12 1.0115e-12 2.78194e-12 0 1.11577e-12 0 1.48512e-12 1.11136e-11 
4.10896e-12 0 0 0 4.79393e-12 4.5848e-13 1.0163e-12 1.30398e-12 0 
0 8.40981e-13 1.11843e-11 8.76554e-12 7.33077e-12 0 0 0 0 
1.80056e-12 0 0 3.82121e-12 1.71173e-13 2.88007e-12 0 8.92476e-12 6.62236e-12 
3.71818e-12 0 3.74509e-12 0 2.78435e-13 4.80212e-12 0 7.29898e-13 1.49796e-12 
0 5.02497e-12 1.80602e-12 0 0 1.21358e-12 1.48145e-12 4.77892e-12 9.44398e-12 
8.1084e-12 0 0 9.46446e-12 0 8.09195e-12 0 9.20574e-12 0 
2.75958e-12 4.03838e-12 4.72616e-13 0 8.73808e-12 3.7302e-13 7.39779e-12 0 1.21586e-12 
0 0 1.23597e-12 4.87272e-12 0 9.80453e-12 6.41045e-12 5.57425e-12 3.96496e-12 
0 0 0 3.50354e-12 2.96433e-12 0 1.07001e-11 4.26759e-12 9.96724e-12 
0 3.20701e-12 2.46251e-12 3.02779e-12 3.71314e-12 0 3.35809e-12 7.58836e-12 0 
1.2951e-12 0 0 4.6338e-14 0 0 0 0 0 
0 0 0 2.03176e-12 7.13722e-12 4.86338e-12 0 1.04105e-13 0 
2.74284e-12 0 2.65077e-12 6.48366e-12 6.67519e-12 0 2.59811e-13 0 0 
0 9.48848e-13 0 9.23556e-12 4.93028e-12 0 1.46801e-12 0 0 
0 1.86088e-12 0 0 0 5.29748e-12 2.42156e-12 1.7362e-13 0 
1.20744e-12 0 0 3.67474e-12 8.70957e-12 0 5.94527e-14 0 0 
1.85394e-12 0 0 0 0 0 0 1.00551e-12 0 
8.17824e-12 1.67363e-12 4.14016e-12 0 5.19188e-12 0 0 0 0 
6.18903e-12 5.3956e-12 0 0 0 0 1.32509e-12 0 3.70716e-12 
0 1.19755e-11 0 0 2.70309e-12 0 0 0 0 
0 3.87158e-12 1.80703e-12 6.94929e-12 0 0 1.46244e-11 5.71405e-12 0 
1.04618e-11 8.50246e-12 0 1.07815e-11 0 2.54905e-12 7.29453e-13 3.95299e-12 0 
0 6.10209e-12 0 0 0 3.19898e-12 3.06571e-12 0 0 
0 1.04804e-11 1.98014e-12 3.51649e-12 0 0 0 0 9.09505e-12 
0 5.20421e-12 3.32087e-12 0 3.61165e-13 0 0 0 0 
0 6.406e-12 0 0 0 5.52319e-12 0 0 0 
1.16913e-11 0 9.17968e-12 0 1.8881e-12 1.91793e-12 3.41374e-12 9.81241e-12 0 
0 0 0 9.4512e-12 4.80208e-12 1.14003e-12 3.98207e-12 0 7.92612e-12 
0 2.14948e-12 0 0 2.09314e-13 0 2.9197e-12 7.33106e-12 7.43332e-12 
0 0 0 4.87664e-12 1.16339e-11 0 0 3.12648e-13 9.05714e-12 
2.81166e-12 0 5.61492e-12 0 6.50601e-12 0 5.55082e-12 0 0 
0 0 6.40783e-13 0 6.23173e-12 2.4571e-12 0 0 0 
0 0 0 6.02404e-13 0 3.55129e-12 0 3.05545e-12 7.01718e-12 
0 0 1.16605e-11 9.93559e-12 0 1.02977e-11 3.78913e-12 6.26614e-13 0 
5.90011e-12 0 1.17591e-12 3.56064e-12 0 8.78038e-12 5.15009e-12 4.67655e-12 2.01868e-12 
3.35938e-13 7.21673e-12 9.98258e-12 4.95702e-13 1.15444e-12 3.03336e-12 7.9222e-13 0 0 
2.64505e-12 5.30051e-14 3.0971e-12 1.32881e-11 0 0 0 0 0 
0 0 2.60908e-12 1.99966e-12 1.79076e-12 4.37091e-12 0 5.17778e-12 0 
9.5535e-12 1.85991e-12 3.81404e-12 0 5.14739e-12 2.7149e-12 1.67361e-12 4.68887e-12 7.06953e-12 
6.19001e-12 9.73736e-12 0 2.81459e-12 0 0 6.22834e-13 6.2771e-12 1.50805e-12 
0 2.1989e-12 1.42482e-12 0 0 1.20769e-11 0 5.7436e-12 0 
8.18413e-12 2.91509e-12 3.37251e-12 3.60265e-12 7.34544e-12 0 4.98806e-12 3.31838e-12 0 
5.30804e-12 0 0 3.23784e-12 1.99604e-12 4.22507e-12 6.0311e-12 0 4.61228e-12 
0 4.44742e-12 0 0 0 0 0 2.77507e-12 1.82695e-12 
5.77603e-13 3.11494e-12 5.19552e-12 0 0 0 8.40288e-12 2.17942e-12 0 
6.33213e-12 8.00681e-12 1.06934e-12 2.25809e-13 1.60881e-13 6.75642e-12 0 7.73631e-12 0 
0 4.37661e-13 1.41299e-12 0 8.3077e-12 7.94172e-12 0 0 1.01825e-12 
0 0 2.03967e-13 0 1.64333e-13 6.83396e-12 0 0 3.36929e-13 
2.1145e-11 8.26751e-13 3.26375e-13 0 6.17484e-12 0 0 7.89497e-14 0 
6.11489e-12 1.03159e-11 6.55923e-12 1.4055e-12 4.35578e-12 7.14595e-13 0 4.45963e-12 9.14358e-12 
0 0 0 3.17112e-12 0 0 0 6.05813e-12 0 
0 0 0 1.28141e-12 1.11553e-11 1.72804e-12 0 5.01672e-12 0 
1.92234e-14 0 0 0 4.20712e-12 8.57689e-12 2.7558e-12 0 9.98211e-12 
0 6.97466e-12 8.29173e-12 9.82606e-12 6.33862e-13 2.09403e-12 3.57714e-13 2.05327e-12 0 
0 0 8.34566e-12 0 2.6714e-12 0 0 0 0 
0 5.18141e-13 0 0 5.71538e-12 6.21738e-12 2.2489e-12 0 3.92428e-12 
0 1.47725e-11 2.61107e-13 0 1.19062e-11 4.5468e-12 0 1.73574e-12 1.24969e-12 
0 0 0 7.92197e-12 0 0 8.5525e-13 0 4.64446e-12 
7.75951e-12 3.17682e-12 7.96074e-12 0 0 0 4.47319e-12 1.70068e-12 0 
0 0 7.32275e-12 1.02994e-11 0 0 7.11216e-12 4.03895e-12 0 
0 0 0 1.14085e-12 0 6.13051e-12 0 2.70997e-12 0 
0 3.51865e-12 0 3.30582e-12 0 0 0 0 0 
3.14853e-13 0 2.46498e-13 0 0 8.71611e-13 6.05866e-12 2.14602e-12 0 
0 8.91759e-12 3.62527e-12 3.2799e-13 0 0 5.73542e-12 6.77654e-12 6.36938e-12 
5.62309e-13 1.11235e-11 4.7885e-12 0 0 0 4.14697e-12 0 0 
0 0 0 1.14299e-11 0 2.2559e-12 3.29995e-12 0 2.38189e-12 
0 6.00435e-12 0 0 0 0 5.93358e-13 0 8.59656e-13 
1.03956e-11 0 0 4.27497e-12 0 0 0 0 3.14968e-12 
2.645e-12 0 6.71941e-14 0 4.8004e-12 0 2.59544e-12 7.61191e-12 1.96561e-12 
0 4.92008e-12 1.11527e-11 0 1.98761e-12 7.1047e-12 2.1186e-12 4.11037e-12 0 
0 0 8.86188e-12 0 0 7.97175e-12 5.46589e-12 3.2099e-12 6.46152e-12 
0 0 4.32728e-12 0 0 0 5.86853e-12 0 0 
6.21598e-12 0 0 0 0 1.89544e-11 1.13001e-11 2.58565e-12 0 
0 0 0 3.61285e-13 3.73618e-12 0 0 2.55214e-12 1.62141e-12 
0 7.97928e-12 0 6.16719e-13 0 1.25058e-11 0 7.26658e-12 0 
4.45059e-13 7.29945e-12 5.88419e-12 2.25373e-12 0 0 7.50138e-12 1.1586e-12 1.15509e-12 
0 0 0 6.98489e-12 5.50585e-12 5.62312e-12 0 4.3729e-14 7.44442e-12 
0 3.75995e-12 0 0 3.44257e-12 1.97305e-12 0 0 3.39125e-12 
2.51047e-12 2.60017e-12 0 6.16294e-12 4.68937e-12 2.97996e-12 3.57208e-12 0 0 
1.15492e-12 4.27174e-12 0 0 0 0 3.1655e-12 0 0 
1.40994e-12 5.12714e-12 0 1.0168e-12 0 1.17541e-11 8.36524e-14 0 9.97747e-12 
4.6477e-12 0 3.16015e-13 0 0 0 5.66457e-13 0 2.42811e-12 
0 0 0 3.488e-12 1.6456e-12 1.78652e-12 4.39229e-12 2.12649e-12 1.05264e-13 
4.20543e-12 1.09067e-12 1.08755e-11 0 1.17975e-11 0 0 0 9.31392e-12 
2.97094e-12 0 1.37614e-13 2.33147e-13 0 1.66908e-11 0 0 4.82307e-12 
0 3.53868e-13 0 0 0 4.69718e-12 8.01958e-13 0 2.75615e-13 
0 0 2.26296e-12 0 0 1.04372e-12 0 0 2.81248e-12 
6.25824e-13 0 0 0 9.87026e-12 1.58382e-12 1.17964e-11 0 0 
4.07789e-12 2.96628e-12 5.31347e-12 9.51254e-13 0 7.26524e-12 0 2.17905e-12 0 
0 0 0 6.06685e-12 0 1.70427e-12 0 0 4.73578e-12 
0 0 0 1.76738e-12 0 5.85166e-12 5.10446e-12 1.76048e-11 0 
0 4.11615e-12 5.52155e-12 0 0 2.22389e-12 0 1.47614e-11 0 
0 0 0 4.61811e-12 0 4.24981e-13 2.65628e-12 5.84002e-12 0 
0 0 1.48835e-13 1.12438e-12 7.62807e-13 0 0 0 0 
2.03121e-12 0 3.31697e-12 7.32299e-12 4.99747e-13 0 0 9.16807e-12 0 
6.48369e-12 1.31832e-12 1.42885e-13 0 4.19683e-12 0 0 1.1831e-11 1.45791e-12 
4.07879e-12 4.72863e-12 0 0 0 1.18545e-12 9.0884e-13 0 0 
0 0 7.36678e-12 6.13609e-12 7.84335e-12 3.3813e-12 0 0 8.35163e-12 
1.28711e-12 0 1.12479e-11 6.25552e-12 1.28665e-12 0 0 1.13409e-11 8.63737e-13 
3.35681e-12 6.11479e-12 1.10572e-11 0 1.49526e-12 7.30259e-12 0 0 8.47005e-12 
0 0 0 0 7.84826e-12 0 0 8.37091e-13 4.81192e-13 
0 7.5409e-12 1.38977e-12 5.0748e-12 0 0 2.67916e-12 1.18017e-12 0 
0 0 7.94194e-12 4.08045e-12 5.21011e-12 5.34601e-12 0 7.55868e-12 7.98432e-14 
0 0 8.23144e-12 7.5455e-12 1.88808e-12 6.78303e-12 0 6.95078e-12 3.8767e-12 
0 0 0 0 0 6.57825e-12 0 8.29666e-12 0 
3.03817e-12 0 0 0 7.7153e-12 0 1.82014e-12 0 0 
5.01429e-12 0 5.92258e-12 6.31635e-12 1.19058e-12 4.36541e-12 0 0 0 
1.14077e-13 1.76071e-12 0 2.82495e-12 0 5.06142e-13 0 0 0 
0 5.87166e-13 0 7.87519e-12 0 0 0 0 1.19455e-11 
0 0 0 0 1.18658e-13 0 4.30924e-12 0 2.79472e-13 
1.39733e-12 0 6.03486e-12 0 3.8384e-12 3.27413e-12 0 1.17839e-11 8.48143e-12 
0 0 0 0 6.60051e-12 0 2.22358e-12 0 0 
4.22443e-12 0 6.72447e-12 0 0 0 9.06383e-13 0 0 
0 0 0 0 1.3251e-12 7.59158e-12 0 5.11574e-13 0 
0 3.3583e-12 9.17718e-12 0 8.75412e-12 5.64848e-12 0 3.75564e-12 1.4556e-11 
0 0 5.90725e-12 1.04425e-11 0 0 7.29539e-12 0 9.21011e-13 
0 1.45124e-11 6.8378e-12 0 3.60196e-12 0 0 1.30016e-11 0 
1.9228e-12 6.82125e-12 0 9.58618e-12 0 4.33519e-14 0 0 0 
0 8.65594e-12 5.62988e-12 0 5.13353e-12 1.78481e-12 2.56651e-12 5.08672e-12 0 
0 0 2.45538e-12 0 1.68738e-12 1.9608e-12 1.77335e-12 6.06886e-12 0 
5.14751e-12 7.79403e-12 2.97712e-12 6.55251e-12 0 5.3033e-12 0 0 0 
0 0 2.59143e-12 5.24867e-12 2.52224e-12 0 3.97988e-12 7.29717e-12 1.25555e-12 
8.91207e-12 0 5.90008e-12 0 5.14917e-12 0 1.11045e-11 4.1916e-12 2.33037e-12 
0 1.22069e-11 1.13267e-11 1.34162e-11 1.55961e-12 0 0 2.36874e-12 0 
0 0 2.63774e-12 0 0 4.66499e-12 7.41628e-12 2.24362e-12 4.93937e-12 
0 2.65459e-12 0 0 5.57666e-12 1.12171e-12 0 0 4.91264e-12 
2.62936e-12 0 4.73585e-12 7.22245e-12 4.00399e-12 7.78515e-12 0 1.10401e-13 4.02115e-12 
8.51705e-12 0 3.51434e-12 0 1.28873e-11 0 5.78634e-12 3.84063e-12 0 
0 3.60322e-12 9.24839e-12 1.50214e-11 7.13521e-12 2.29503e-13 1.52751e-11 0 0 
0 0 3.98761e-12 5.11685e-12 0 0 0 5.19264e-12 0 
0 6.92223e-12 0 6.29404e-13 0 8.23824e-12 3.43664e-12 0 0 
2.83164e-13 8.58511e-12 0 0 6.96933e-12 0 1.27737e-11 0 0 
0 1.15589e-11 1.17589e-12 9.19546e-12 0 1.1947e-12 0 5.41616e-12 0 
0 3.66302e-14 6.16872e-12 0 0 1.70835e-12 1.96765e-13 0 0 
6.66191e-12 0 0 0 1.49541e-12 2.87471e-12 0 0 6.49781e-12 
0 1.24699e-12 1.29052e-12 0 0 1.83422e-11 1.06527e-12 4.63469e-12 0 
0 0 3.2922e-12 0 0 0 1.94588e-13 0 1.37731e-11 
0 0 0 0 2.10975e-13 0 0 1.07534e-11 0 
3.37553e-12 0 0 0 0 6.08138e-12 0 4.18448e-12 1.15828e-11 
0 3.49186e-12 4.11834e-12 3.1983e-12 0 0 0 0 0 
9.65215e-12 1.88173e-12 0 0 3.52796e-13 4.94887e-12 3.10105e-12 3.97797e-12 5.4774e-12 
5.1398e-15 0 0 2.40333e-12 3.69967e-12 0 4.49002e-12 0 0 
0 0 0 2.69767e-12 1.09267e-11 4.79015e-12 1.16723e-12 8.59657e-12 0 
0 6.3086e-12 6.24304e-12 1.24437e-12 0 0 5.40428e-12 0 2.04895e-13 
3.57117e-12 2.27817e-12 0 0 0 3.53124e-12 0 0 6.29799e-12 
0 0 8.49875e-12 1.392e-12 5.25187e-12 6.0462e-12 2.34684e-12 1.66241e-12 6.07508e-12 
0 0 0 0 0 6.11684e-12 3.51042e-13 0 0 
1.06832e-11 9.37562e-13 8.78444e-13 1.88639e-12 0 1.03164e-11 6.73956e-12 9.54499e-12 7.74293e-12 
0 1.78056e-12 0 0 0 1.00248e-12 9.72048e-12 0 0 
0 0 0 1.14884e-12 3.93862e-12 0 0 0 0 
5.84361e-12 0 0 0 0 5.22243e-13 3.49894e-12 1.32784e-12 5.20212e-12 
1.19194e-12 2.08403e-12 1.72857e-12 0 5.27323e-12 0 0 3.45788e-12 4.54588e-12 
0 0 0 1.44417e-12 1.29319e-13 0 1.52936e-12 0 3.82183e-12 
5.10986e-12 0 0 3.08903e-12 7.4525e-13 0 0 0 3.00386e-12 
0 0 0 0 2.84527e-12 0 3.04312e-12 5.47706e-12 0 
8.8523e-13 0 2.46611e-12 0 0 0 5.39033e-13 7.91816e-12 1.64744e-11 
0 0 0 0 0 0 0 7.50807e-12 8.19509e-12 
3.31687e-12 0 5.1456e-12 1.35357e-11 0 0 1.34574e-12 1.1488e-11 1.2559e-11 
0 0 0 7.48937e-12 6.13118e-12 0 5.0978e-12 0 0 
0 0 0 0 5.5918e-12 4.09278e-12 9.76346e-12 0 0 
3.41074e-12 0 1.51122e-13 1.58183e-11 0 0 8.27983e-12 0 1.18818e-12 
4.36971e-12 1.75014e-12 0 0 4.81539e-12 2.59332e-12 0 9.33645e-12 2.10977e-12 
0 4.04472e-12 5.46207e-12 0 0 0 1.55551e-12 5.38101e-12 0 
1.46841e-11 0 6.89209e-12 8.00478e-13 0 0 0 0 0 
1.11521e-12 0 2.44709e-12 9.81272e-12 3.42662e-12 6.84725e-12 1.64536e-12 0 3.35255e-12 
0 0 0 8.64757e-12 1.59041e-12 0 1.09644e-11 4.14564e-12 0 
0 2.47369e-12 2.26744e-12 0 0 1.39429e-11 1.46132e-12 0 6.58092e-12 
0 3.06396e-13 0 5.47711e-12 0 3.02742e-12 0 0 0 
0 4.57535e-12 0 6.72045e-12 0 2.1273e-12 6.84556e-12 0 7.72454e-12 
0 2.93298e-12 2.39916e-12 0 0 2.85262e-12 5.99613e-12 2.3455e-12 4.47302e-12 
0 1.59138e-12 0 4.36013e-12 0 9.77845e-12 4.7538e-12 6.04003e-12 3.81377e-13 
0 0 5.25259e-12 2.64316e-12 0 0 5.7116e-12 8.03584e-12 0 
3.66721e-12 0 0 6.36455e-12 0 8.17845e-12 7.3362e-12 0 4.69302e-12 
0 0 7.2331e-12 0 0 3.12844e-12 4.86504e-12 0 0 
6.05222e-12 0 0 0 0 2.2432e-12 3.46647e-12 0 0 
3.54018e-12 8.88987e-12 0 0 0 0 1.45762e-12 0 6.52717e-12 
8.30822e-12 0 0 0 6.21041e-12 0 0 1.56658e-12 5.84838e-12 
0 3.78663e-12 0 7.93663e-12 0 7.70862e-13 3.16861e-12 6.14476e-12 0 
0 0 0 3.65717e-12 0 0 0 0 8.81902e-13 
0 1.16142e-11 2.78449e-12 7.08666e-12 0 0 0 8.10228e-12 2.54444e-12 
8.43915e-12 0 0 0 3.32042e-12 2.31824e-12 0 8.58034e-13 0 
0 1.95499e-12 0 4.01042e-12 0 0 1.96442e-12 0 0 
1.10021e-11 9.09122e-12 8.83797e-12 0 0 1.17691e-12 1.62177e-12 0 1.08684e-12 
4.66435e-12 0 3.48374e-13 4.69494e-12 0 1.27989e-11 6.96393e-13 9.78346e-12 2.06422e-12 
0 7.95007e-12 0 1.85991e-11 2.45914e-12 4.0028e-12 0 5.12727e-12 0 
9.08959e-12 8.69043e-12 0 0 0 2.64817e-12 1.14475e-11 5.46505e-12 5.41488e-12 
0 1.86322e-12 1.72858e-12 5.06578e-13 7.40128e-12 7.70578e-12 1.04714e-11 1.05666e-12 0 
0 5.69858e-12 8.56851e-12 0 0 0 7.90435e-12 0 0 
0 4.93443e-12 0 0 0 6.77196e-12 9.33745e-12 4.9956e-12 1.44644e-12 
0 2.08339e-12 0 6.78397e-13 8.62918e-13 5.19513e-12 2.12817e-12 7.53855e-12 0 
0 0 0 1.24927e-12 8.43975e-13 3.76457e-12 0 0 0 
5.12482e-12 0 6.67215e-12 5.96959e-12 3.81252e-12 1.09041e-12 0 3.47088e-12 1.15062e-12 
2.96041e-12 1.1401e-11 1.21733e-12 0 0 7.82358e-12 4.35613e-12 0 0 
1.23812e-12 9.15182e-12 1.86897e-12 0 0 7.6517e-12 4.32727e-12 3.76902e-12 7.10914e-12 
6.40722e-12 7.75721e-13 3.92084e-12 4.07307e-13 1.60581e-12 0 0 0 0 
9.51641e-12 0 3.77938e-12 6.54577e-12 3.28899e-12 0 4.92206e-12 4.29901e-12 0 
0 0 2.49293e-12 3.31968e-12 4.55785e-12 2.95662e-12 0 0 0 
0 1.1691e-11 3.46793e-12 0 0 5.8546e-12 0 4.44537e-12 2.87137e-12 
4.35148e-12 7.29078e-13 0 5.79151e-12 5.76696e-12 2.69424e-12 0 0 9.02453e-12 
9.44214e-12 1.75159e-12 0 6.59752e-12 0 0 6.64815e-12 3.27879e-12 0 
1.16784e-11 0 8.91122e-12 0 3.2294e-12 8.01735e-12 6.67646e-13 0 4.67099e-13 
9.05026e-12 7.81312e-12 0 5.91413e-12 0 1.0662e-11 0 0 1.43003e-11 
4.08032e-12 4.21803e-12 0 0 2.76546e-12 0 1.37674e-12 0 0 
4.82837e-12 3.4265e-12 3.17592e-12 0 2.18408e-12 2.93671e-12 4.92141e-12 7.2521e-12 5.17601e-12 
0 3.44941e-12 3.74398e-12 6.7957e-12 2.33297e-12 0 3.92851e-12 7.78283e-14 0 
2.19599e-12 8.97958e-12 6.47977e-12 0 7.16321e-12 1.24762e-11 3.30146e-12 0 8.78417e-12 
5.30587e-12 6.80538e-12 0 8.34954e-13 0 1.75116e-12 5.26702e-12 0 1.18424e-12 
4.3574e-12 7.75942e-12 0 0 0 0 0 3.43923e-12 0 
2.19331e-12 6.14342e-12 0 5.15121e-12 0 7.10843e-13 0 4.04862e-12 0 
5.2434e-12 0 9.01397e-12 0 0 2.97873e-12 0 0 4.44589e-12 
0 6.04079e-13 0 0 9.83313e-12 0 1.10036e-11 1.97189e-12 0 
7.03799e-13 0 2.22998e-12 6.43241e-12 3.1911e-12 0 1.00601e-11 0 0 
2.12395e-12 0 0 0 0 0 1.5188e-12 2.35474e-12 1.11266e-11 
0 0 1.85975e-12 3.91825e-12 0 0 9.94579e-12 6.12609e-12 2.13065e-11 
7.74397e-12 4.65278e-12 0 6.65716e-12 0 2.68818e-12 7.73036e-12 6.66953e-12 0 
0 0 6.60226e-12 4.03943e-12 4.46311e-12 0 0 0 0 
0 0 0 2.3534e-12 0 3.19728e-12 0 1.97649e-12 0 
8.15823e-12 6.5507e-13 0 0 0 0 0 0 6.68101e-12 
0 9.1021e-12 0 3.30568e-12 0 8.37328e-12 9.28003e-13 4.50636e-12 7.29315e-12 
5.75639e-12 0 0 5.41036e-12 0 0 0 3.82765e-12 7.08056e-12 
0 1.01203e-11 0 0 0 5.60785e-12 1.31207e-12 1.65357e-12 0 
2.22029e-12 3.36391e-13 0 7.1686e-12 4.26183e-13 0 2.02826e-12 1.12091e-12 1.92235e-12 
0 1.32887e-13 0 2.29339e-12 1.11787e-11 0 6.76508e-12 1.44781e-12 3.88232e-12 
2.44918e-12 0 1.86815e-11 0 0 0 2.43992e-12 1.3673e-12 2.92622e-12 
6.97209e-12 4.76211e-12 2.39809e-12 6.44276e-12 0 0 8.32903e-12 0 0 
0 0 0 0 1.23834e-12 0 5.38374e-12 8.72394e-12 0 
1.30383e-11 9.78406e-12 8.64483e-12 0 0 0 2.9775e-12 0 7.73998e-12 
8.02432e-12 0 8.26023e-12 0 0 0 0 0 0 
1.68808e-12 0 0 1.71451e-12 0 0 0 7.23477e-12 3.67868e-12 
8.5875e-12 0 0 0 0 0 0 1.26487e-12 3.76499e-13 
0 8.4189e-14 2.39699e-12 0 0 3.53218e-12 4.35339e-12 7.61838e-12 7.36733e-12 
0 4.50143e-12 0 0 4.46518e-12 1.68662e-12 0 0 2.1351e-13 
0 0 3.48701e-12 3.60066e-13 1.9378e-12 2.96979e-12 0 0 5.48449e-12 
0 0 3.07189e-12 4.73291e-13 0 8.72105e-12 0 6.62647e-12 4.89423e-12 
0 0 3.20147e-12 4.28017e-12 6.02107e-13 6.03489e-14 0 0 2.61569e-12 
0 0 4.1513e-12 8.52256e-12 0 5.18269e-12 0 0 1.04215e-11 
0 0 0 3.55547e-12 0 0 1.18312e-12 0 0 
0 0 3.53956e-12 0 0 1.93256e-12 6.57139e-12 3.05529e-13 0 
7.256e-12 4.67001e-12 6.62972e-12 0 0 0 5.24975e-12 5.99561e-12 2.60659e-12 
5.05668e-12 0 0 9.76536e-12 2.16004e-12 3.76473e-13 1.37954e-11 0 1.13952e-12 
0 5.24768e-12 4.78925e-12 3.84671e-12 1.52395e-12 0 0 4.2874e-12 0 
4.82793e-12 6.84011e-12 1.27585e-12 1.97108e-12 0 0 0 0 1.81924e-12 
9.39724e-12 0 1.21477e-12 3.49263e-12 5.73376e-12 3.04414e-12 0 0 6.38793e-12 
1.09007e-12 0 0 0 0 0 0 9.93333e-14 6.95979e-12 
0 0 6.94413e-12 0 0 0 0 4.56374e-12 1.90305e-12 
0 7.2206e-12 1.74477e-11 3.83234e-12 2.78753e-13 4.01587e-12 0 0 5.7527e-12 
8.59683e-13 5.05465e-12 0 0 5.36969e-12 0 0 3.44225e-12 0 
0 0 4.93394e-12 0 5.58739e-12 6.30145e-12 8.39487e-12 0 0 
0 1.26165e-12 0 7.11782e-12 0 0 1.50669e-12 9.99355e-12 2.52641e-12 
0 8.03985e-12 0 6.90692e-12 0 3.5412e-12 4.85004e-12 6.7928e-12 4.12829e-12 
0 1.9836e-12 0 4.05023e-12 4.2054e-13 0 1.47648e-12 0 4.01949e-12 
0 0 4.25839e-12 0 8.92847e-12 0 5.95472e-12 0 5.37729e-12 
0 0 0 5.89518e-13 0 0 0 0 6.78553e-13 
5.49211e-12 8.7152e-12 0 2.96412e-12 6.78296e-12 2.35933e-12 7.04119e-12 0 6.9705e-12 
0 0 0 7.30839e-12 9.12531e-13 0 0 0 7.85339e-12 
1.26289e-11 4.5097e-13 0 7.15809e-13 9.4425e-13 0 0 0 0 
2.22098e-12 3.22531e-12 4.38814e-12 7.37032e-12 0 0 0 1.62201e-11 0 
0 0 2.76616e-12 0 7.82665e-13 0 0 5.22617e-13 0 
5.1026e-12 6.18538e-12 5.24128e-12 8.44438e-12 0 1.04715e-11 0 7.73892e-12 1.53915e-13 
0 2.7387e-12 0 0 9.50374e-12 0 2.91218e-12 0 0 
1.09944e-11 5.12672e-12 0 3.97711e-12 1.30572e-11 0 6.22142e-12 0 0 
9.32445e-12 0 0 6.68408e-13 0 0 5.12907e-12 4.81014e-12 0 
0 7.03082e-13 0 6.11407e-12 1.21878e-11 5.02493e-12 5.79488e-12 0 0 
4.22612e-12 1.3973e-12 0 0 9.98273e-13 0 2.90754e-12 0 0 
0 4.88851e-12 0 8.98724e-12 2.47445e-12 0 3.79847e-13 7.75878e-12 3.96258e-12 
5.81755e-12 5.05928e-13 0 0 7.78322e-12 1.13466e-11 0 3.50131e-12 1.20229e-12 
0 9.93359e-13 0 1.12938e-11 1.76265e-12 0 0 0 1.99188e-12 
0 0 3.02437e-12 0 0 0 0 8.03261e-13 6.24252e-12 
9.69213e-12 0 0 0 4.25484e-12 0 3.54524e-12 0 0 
1.25384e-11 2.19221e-12 0 0 2.52392e-13 8.32408e-12 0 0 4.05935e-13 
0 2.85256e-12 0 0 0 0 2.9342e-12 1.58307e-12 1.24273e-12 
0 0 3.04643e-12 0 0 4.98311e-13 0 0 0 
0 7.0151e-13 5.45527e-12 0 0 2.36294e-12 5.94433e-12 7.42207e-12 1.09904e-12 
0 3.54176e-12 0 0 2.86604e-12 0 0 0 1.16125e-11 
0 1.19539e-11 9.21056e-12 1.93804e-12 0 0 0 0 8.88638e-13 
0 7.96048e-12 0 6.47079e-12 0 1.89301e-12 3.76636e-12 0 0 
0 1.14771e-11 0 0 0 5.44997e-12 5.83622e-12 0 6.32186e-12 
7.55298e-12 8.61742e-12 0 6.98673e-12 0 3.08986e-12 2.45926e-12 7.28775e-13 4.65228e-12 
0 0 8.38278e-12 0 0 0 0 1.00398e-11 0 
0 0 0 0 0 5.48321e-12 0 0 1.16105e-11 
1.12494e-11 0 2.05134e-13 0 0 6.85257e-13 0 6.76131e-12 0 
0 0 0 0 8.05568e-12 0 4.94098e-12 0 5.42514e-12 
0 6.06957e-13 0 6.87652e-13 3.55103e-12 0 0 3.73809e-12 0 
0 5.26066e-13 2.68098e-12 7.77565e-12 0 9.99871e-12 0 7.37729e-12 1.14007e-12 
0 6.30887e-12 2.27371e-13 0 5.74529e-12 0 0 6.2045e-12 7.32365e-12 
0 1.6845e-11 0 0 5.62474e-12 8.14361e-12 5.35727e-12 0 1.26792e-11 
5.54244e-12 0 4.49209e-12 0 0 4.48152e-12 7.65596e-12 0 0 
1.61308e-12 0 8.7295e-12 0 2.37707e-12 0 0 0 0 
6.62939e-12 0 7.59503e-12 0 8.17664e-13 0 1.53407e-12 5.83931e-12 2.32474e-12 
4.41836e-12 0 7.11925e-12 0 0 1.14245e-11 8.38828e-12 2.06998e-12 1.73462e-12 
0 0 0 0 0 1.72116e-12 1.01831e-12 6.76478e-12 3.84043e-12 
1.92797e-12 7.83631e-13 0 0 0 0 3.00764e-12 1.11406e-11 9.74972e-13 
2.67391e-12 0 0 0 1.03039e-11 1.35088e-12 0 0 0 
0 7.05621e-12 0 8.61874e-12 0 5.26128e-12 0 0 6.85305e-12 
5.26976e-13 8.79689e-13 2.51014e-12 2.18535e-12 3.62213e-12 0 0 5.00015e-12 4.80266e-12 
4.31567e-12 0 0 4.1515e-12 7.75582e-12 0 0 3.19643e-12 0 
0 9.43992e-12 0 1.17808e-12 0 4.63032e-12 0 0 0 
8.61686e-12 2.02939e-12 1.64866e-12 0 0 0 0 0 0 
2.08246e-12 1.69107e-13 9.11028e-12 0 0 0 3.40011e-12 0 5.60772e-12 
0 0 7.97345e-13 0 0 0 0 4.3056e-13 4.92608e-13 
1.90134e-12 7.07796e-12 0 1.03873e-13 5.79274e-12 4.06332e-12 0 6.93669e-13 0 
0 1.97031e-12 0 6.28352e-12 0 0 9.10289e-12 5.99629e-12 0 
0 2.7883e-12 7.82827e-12 2.62833e-12 1.98039e-12 1.03561e-11 0 1.22968e-11 6.0433e-12 
0 0 1.61927e-12 1.44392e-11 0 0 0 6.10961e-12 6.04348e-12 
0 0 0 0 0 5.91153e-12 3.05759e-12 0 0 
0 2.68873e-12 3.85233e-12 8.71192e-12 1.83833e-12 0 0 3.47437e-12 0 
8.28976e-12 0 7.7104e-12 0 2.28461e-12 4.54867e-12 1.33042e-11 0 0 
0 0 0 0 8.09243e-12 0 1.16272e-11 3.15742e-12 0 
1.4137e-11 0 0 0 1.37191e-12 0 0 6.50153e-12 0 
0 7.98627e-13 0 0 9.53007e-12 0 0 0 0 
0 0 6.32336e-12 0 4.81958e-12 0 7.08649e-13 0 0 
8.03898e-12 1.25163e-11 0 1.35175e-12 0 3.4801e-12 0 0 7.96561e-13 
0 0 0 0 8.55954e-12 9.35378e-12 2.3834e-12 7.35672e-12 0 
0 2.53922e-12 5.8381e-12 2.65829e-12 0 0 1.66259e-12 2.6786e-12 0 
7.49882e-13 0 0 0 0 2.82351e-12 9.14211e-12 4.19837e-12 5.26454e-12 
0 1.25659e-11 0 3.57267e-12 0 3.30817e-12 2.19484e-12 9.44377e-12 7.65711e-12 
2.56018e-12 0 4.56933e-12 0 7.45467e-12 5.51546e-12 0 6.55649e-12 0 
0 1.50505e-11 0 0 0 0 1.60688e-12 2.15244e-12 1.7633e-12 
0 3.66952e-12 0 5.63208e-12 3.8672e-12 0 0 0 5.31668e-12 
5.87829e-12 2.68292e-12 0 3.90852e-12 0 3.75965e-12 3.86425e-12 0 0 
0 0 2.18095e-13 0 0 0 0 5.18216e-12 0 
2.54146e-12 0 0 7.545e-12 3.24204e-12 4.19464e-12 2.69248e-12 0 0 
0 5.22551e-12 0 1.50967e-12 0 0 0 0 0 
2.81723e-12 3.08087e-14 0 6.19989e-12 1.36595e-12 0 6.83528e-12 0 0 
2.08928e-12 0 3.62346e-12 0 0 9.73561e-14 0 0 0 
1.96792e-12 0 0 0 5.89221e-12 3.43351e-12 7.05165e-12 0 0 
1.12976e-11 0 7.47748e-12 0 0 0 0 0 0 
0 7.05943e-13 6.97029e-12 4.57849e-12 0 0 0 0 1.05692e-12 
8.26142e-12 4.78407e-12 7.37431e-12 4.9155e-12 1.71687e-11 0 0 0 0 
0 0 8.93204e-12 1.45302e-12 0 0 0 3.16353e-12 0 
0 1.05397e-12 4.79262e-12 1.38904e-12 0 7.23759e-12 0 6.58117e-12 5.78336e-12 
0 0 4.2459e-12 0 0 6.56047e-12 0 3.7269e-12 5.7161e-12 
0 6.57209e-12 1.0287e-11 0 5.09344e-12 0 0 4.56675e-12 0 
5.80054e-12 6.83896e-12 3.21495e-12 0 0 3.39738e-12 0 8.2191e-12 0 
6.84054e-12 4.84208e-13 1.63679e-11 0 9.90361e-13 0 7.04459e-12 1.31379e-11 0 
3.20597e-12 0 1.88671e-12 7.24176e-13 1.16688e-11 3.00557e-12 0 3.55117e-12 5.6194e-13 
4.28005e-12 8.22277e-13 0 0 7.82226e-12 3.17979e-12 4.29961e-12 9.41378e-12 0 
0 0 0 9.86753e-13 0 0 1.4168e-12 0 1.79572e-12 
0 0 0 4.15591e-13 3.32986e-12 0 3.13499e-13 0 1.2099e-11 
0 6.22188e-12 0 6.71887e-13 9.87297e-12 0 4.74809e-12 0 0 
0 1.50314e-12 0 0 7.18849e-13 0 0 0 6.60121e-12 
2.93497e-12 0 0 0 0 6.21695e-12 3.48227e-12 6.38603e-12 6.83008e-13 
2.6981e-12 3.20639e-12 0 4.21323e-13 5.43629e-12 0 1.22611e-11 2.67537e-12 1.1241e-12 
2.61354e-12 4.28291e-12 5.37787e-12 2.47969e-12 0 2.75717e-12 1.06324e-12 3.06626e-12 0 
4.06884e-12 7.3166e-12 3.15437e-12 0 1.09711e-11 0 0 1.31541e-11 0 
0 4.54379e-12 8.15105e-13 6.59538e-13 0 0 3.36766e-12 0 0 
4.17076e-12 5.29255e-12 1.36016e-13 4.26589e-12 1.84225e-13 0 4.26292e-12 0 0 
3.3016e-12 0 3.61163e-12 2.21818e-12 0 0 0 2.61304e-12 0 
5.31683e-13 0 0 6.08095e-12 0 0 0 6.86662e-12 2.35362e-12 
4.0981e-12 1.24322e-12 2.37134e-12 0 0 1.1661e-11 6.45761e-12 5.53512e-12 3.38427e-12 
4.22374e-13 0 1.35382e-11 5.97507e-12 1.03421e-12 0 0 5.81733e-12 1.06753e-11 
0 0 0 4.84804e-12 0 0 0 1.10736e-11 0 
3.26342e-12 1.29045e-12 4.37019e-12 0 6.16333e-12 1.92432e-12 0 0 2.83256e-12 
1.11082e-12 0 0 0 0 4.72812e-12 0 0 0 
1.20012e-12 0 4.40328e-12 0 2.26451e-13 0 0 0 0 
0 0 1.29626e-11 0 0 0 0 8.97001e-13 0 
3.3969e-12 0 6.85182e-12 0 0 2.11366e-12 1.75682e-12 0 8.31634e-12 
1.09304e-11 0 0 0 1.74055e-12 6.35416e-13 0 0 0 
0 0 0 8.11825e-12 9.45046e-12 1.2568e-11 4.58677e-13 5.39499e-12 0 
5.89012e-12 0 0 0 8.18071e-12 0 0 0 4.00467e-12 
0 3.00734e-12 3.41059e-12 0 0 1.41958e-11 0 7.82794e-12 2.1763e-12 
0 0 1.2348e-11 3.91054e-12 2.46092e-13 9.74182e-12 0 1.00622e-11 0 
0 0 0 9.64172e-12 4.22893e-12 3.95805e-12 3.16832e-13 4.0811e-13 6.10371e-13 
0 0 6.51343e-12 1.33166e-12 2.6626e-12 2.34111e-12 4.05788e-12 6.49966e-13 1.81055e-12 
4.54164e-12 0 3.55895e-12 0 0 0 0 0 3.92227e-12 
6.65026e-12 0 1.59034e-12 2.429e-12 0 0 7.62435e-12 6.17892e-12 0 
3.94137e-12 5.61719e-12 2.17218e-12 0 1.33312e-11 0 1.37063e-12 0 2.11438e-12 
1.22285e-12 1.68471e-12 5.22895e-12 4.57439e-12 0 7.59977e-12 0 0 3.4329e-12 
0 6.92101e-12 5.32239e-12 0 5.46598e-12 2.22853e-12 0 0 5.23645e-12 
3.27742e-12 9.46036e-12 6.21259e-12 0 1.4859e-13 2.19883e-12 1.7993e-12 0 0 
1.0951e-11 9.35759e-13 0 4.58944e-12 0 0 1.5468e-12 8.06085e-13 0 
0 0 0 1.93144e-12 0 1.63644e-12 0 6.49351e-12 0 
0 0 0 0 0 0 0 0 0 
0 0 8.94263e-13 8.09325e-12 1.58058e-12 4.87506e-12 5.00492e-12 3.4689e-12 3.12262e-12 
3.0096e-12 0 0 0 2.47618e-12 9.50456e-12 1.45282e-12 0 3.07352e-12 
0 6.55308e-12 0 7.2919e-13 4.01834e-12 0 0 0 2.30503e-12 
0 0 0 0 7.17752e-13 2.08008e-12 0 7.03037e-12 4.99835e-12 
0 1.44236e-12 1.28378e-11 0 4.25958e-12 1.91042e-12 7.5788e-13 0 0 
0 9.82921e-12 2.12332e-12 8.13524e-13 0 0 9.78038e-12 0 1.02628e-11 
0 5.40355e-12 1.10695e-12 8.43314e-13 0 1.28239e-12 0 3.32761e-12 0 
8.97897e-12 2.41746e-12 3.51215e-12 0 2.12746e-12 1.73407e-11 0 1.25808e-12 0 
5.60502e-12 5.83987e-12 0 0 0 2.74228e-13 1.37064e-11 0 0 
0 2.8654e-12 0 4.45514e-12 0 2.68767e-12 0 0 8.2803e-12 
0 0 9.37652e-12 1.30738e-12 0 4.45303e-12 6.7179e-12 0 0 
6.76847e-12 1.73881e-12 4.59125e-12 0 0 1.57202e-12 4.56088e-12 0 3.01398e-12 
6.15077e-12 1.38714e-13 6.30068e-12 0 3.59361e-12 0 1.66635e-12 4.05033e-12 2.23881e-13 
9.09662e-12 0 0 1.02042e-11 1.54017e-12 0 0 2.68567e-12 0 
0 0 0 3.81627e-12 8.83797e-12 0 0 0 1.41631e-12 
1.3309e-12 1.04051e-11 4.78243e-12 0 0 0 0 1.7642e-12 1.02113e-12 
0 1.53762e-12 0 0 4.78441e-12 0 3.20414e-12 9.41543e-12 5.61626e-12 
6.13701e-12 4.29357e-12 4.13986e-12 1.0445e-11 2.27419e-12 2.1275e-12 2.53707e-12 0 0 
1.10619e-11 1.06733e-12 0 0 0 0 1.14041e-11 0 0 
0 0 0 0 0 3.94482e-12 4.13118e-12 0 7.52259e-12 
1.1816e-11 0 0 0 6.66311e-12 0 0 2.0528e-12 0 
0 0 0 1.37322e-12 0 0 1.01801e-11 0 0 