# vtk DataFile Version 5.1
vtk output
ASCII
DATASET STRUCTURED_POINTS
DIMENSIONS 100 100 1
SPACING 1 1 1
ORIGIN 0 0 0
POINT_DATA 10000
FIELD FieldData 6
feature_1 1 10000 float
0 0 0 0 0 0 0 0 0 
0 0 0 0 0 0 0 0 0 
0 0 0 0 0 0 0 0 0 
0 0 0 0 0 0 0 0 0 
0 0 0 0 0 0 0 0 0 
0 0 0 0 0 0 0 0 0 
0 0 0 0 0 0 0 0 0 
0 0 0 0 0 0 0 0 0 
0 0 0 0 0 0 0 0 0 
0 0 0 0 0 0 0 0 0 
0 0 0 0 0 0 0 0 0 
0 0 0 0 0 0 0 0 0 
0 0 0 0 0 0 0 0 0 
0 0 0 0 0 0 0 0 0 
0 0 0 0 0 0 0 0 0 
0 0 0 0 0 0 0 0 0 
0 0 0 0 0 0 0 0 0 
0 0 0 0 0 0 0 0 0 
0 0 0 0 0 0 0 0 0 
0 0 0 0 0 0 0 0 0 
0 0 0 0 0 0 0 0 0 
0 0 0 0 0 0 0 0 0 
0 0 0 0 0 0 0 0 0 
0 0 0 0 0 0 0 0 0 
0 0 0 0 0 0 0 0 0 
0 0 0 0 0 0 0 0 0 
0 0 0 0 0 0 0 0 0 
0 0 0 0 0 0 0 0 0 
0 0 0 0 0 0 0 0 0 
0 0 0 0 0 0 0 0 0 
0 0 0 0 0 0 0 0 0 
0 0 0 0 0 0 0 0 0 
0 0 0 0 0 0 0 0 0 
0 0 0 0 0 0 0 0 0 
0 0 0 0 0 0 0 0 0 
0 0 0 0 0 0 0 0 0 
0 0 0 0 0 0 0 0 0 
0 0 0 0 0 0 0 0 0 
0 0 0 0 0 0 0 0 0 
0 0 0 0 0 0 0 0 0 
0 0 0 0 0 0 0 0 0 
0 0 0 0 0 0 0 0 0 
0 0 0 0 0 0 0 0 0 
0 0 0 0 0 0 0 0 0 
0 0 0 0 0 0 0 0 0 
0 0 0 0 0 0 0 0 0 
0 0 0 0 0 0 0 0 0 
0 0 0 0 0 0 0 0 0 
0 0 0 0 0 0 0 0 0 
0 0 0 0 0 0 0 0 0 
0 0 0 0 0 0 0 0 0 
0 0 0 0 0 0 0 0 0 
0 0 0 0 0 0 0 0 0 
0 0 0 0 0 0 0 0 0 
0 0 0 0 0 0 0 0 0 
0 0 0 0 0 0 0 0 0 
0 0 0 0 0 0 0 0 0 
0 0 0 0 0 0 0 0 0 
0 0 0 0 0 0 0 0 0 
0 0 0 0 0 0 0 0 0 
0 0 0 0 0 0 0 0 0 
0 0 0 0 0 0 0 0 0 
0 0 0 0 0 0 0 0 0 
0 0 0 0 0 0 0 0 0 
0 0 0 0 0 0 0 0 0 
0 0 0 0 0 0 0 0 0 
0 0 0 0 0 0 0 0 0 
0 0 0 0 0 0 0 0 0 
0 0 0 0 0 0 0 0 0 
0 0 0 0 0 0 0 0 0 
0 0 0 0 0 0 0 0 0 
0 0 0 0 0 0 0 0 0 
0 0 0 0 0 0 0 0 0 
0 0 0 0 0 0 0 0 0 
0 0 0 0 0 0 0 0 0 
0 0 0 0 0 0 0 0 0 
0 0 0 0 0 0 0 0 0 
0 0 0 0 0 0 0 0 0 
0 0 0 0 0 0 0 0 0 
0 0 0 0 0 0 0 0 0 
0 0 0 0 0 0 0 0 0 
0 0 0 0 0 0 0 0 0 
0 0 0 0 0 0 0 0 0 
0 0 0 0 0 0 0 0 0 
0 0 0 0 0 0 0 0 0 
0 0 0 0 0 0 0 0 0 
0 0 0 0 0 0 0 0 0 
0 0 0 0 0 0 0 0 0 
0 0 0 0 0 0 0 0 0 
0 0 0 0 0 0 0 0 0 
0 0 0 0 0 0 0 0 0 
0 0 0 0 0 0 0 0 0 
0 0 0 0 0 0 0 0 0 
0 0 0 0 0 2.83275e-10 0 0 0 
3.74844e-10 0 0 0 0 0 0 0 0 
0 0 0 0 0 0 0 0 0 
0 0 0 0 0 0 0 0 0 
0 0 0 0 0 0 0 0 0 
0 0 0 0 0 0 0 0 0 
0 0 0 0 0 0 0 0 0 
0 0 0 0 0 0 0 0 0 
0 0 0 0 0 0 0 0 0 
0 0 0 0 0 0 0 0 0 
0 0 0 0 0 0 0 0 0 
0 0 0 0 0 0 0 6.13928e-10 0 
0 1.11593e-09 0 0 0 0 0 0 0 
0 0 0 0 0 0 8.99917e-10 0 0 
0 0 0 0 0 0 0 0 0 
0 0 0 0 0 0 0 0 0 
0 0 0 0 0 0 0 0 0 
0 0 0 0 0 0 0 0 0 
0 0 0 0 0 0 0 0 0 
0 0 0 0 0 0 0 0 0 
0 0 0 0 0 0 0 0 0 
0 0 0 0 0 0 0 0 0 
0 0 0 0 0 0 0 0 0 
0 1.69995e-09 0 0 0 0 0 0 0 
0 0 0 0 0 0 0 0 0 
0 0 0 0 0 0 0 0 0 
0 0 0 0 0 5.19604e-10 0 0 0 
0 0 0 0 0 0 0 0 0 
0 0 0 0 0 0 0 0 0 
0 0 0 0 0 0 0 0 0 
0 0 0 0 0 0 0 0 0 
0 0 0 0 0 0 0 0 0 
0 0 0 0 3.51912e-10 0 0 0 0 
0 0 0 0 0 0 0 0 1.42969e-09 
0 0 0 0 0 0 0 0 0 
0 0 0 0 0 0 0 0 0 
0 0 0 0 0 0 0 0 0 
0 0 0 0 0 0 0 0 0 
0 0 0 0 0 0 0 0 0 
0 0 0 0 0 0 0 0 0 
0 0 0 0 0 0 0 0 0 
0 0 0 0 0 0 0 0 0 
0 0 0 0 0 0 0 0 0 
0 0 0 0 0 0 0 0 0 
0 0 0 0 0 0 0 0 0 
0 0 0 7.90455e-07 9.19685e-09 2.61673e-09 0 0 0 
0 0 0 0 0 0 0 0 6.44345e-07 
1.31681e-09 0 0 0 0 0 0 0 0 
0 0 0 7.70052e-11 0 0 0 4.98308e-10 0 
0 0 0 0 0 0 0 0 0 
0 0 0 0 0 0 0 0 0 
0 0 0 0 0 0 0 0 0 
0 0 0 0 0 0 0 0 0 
0 0 0 0 0 0 0 0 0 
0 0 0 0 0 0 5.61321e-10 0 0 
0 0 0 1.96595e-09 0 0 0 0 0 
3.8479e-09 0 0 8.31126e-07 0 0 0 0 0 
0 0 0 0 0 0 0 0 0 
0 0 1.75905e-09 1.00707e-09 0 0 0 5.59506e-10 0 
0 0 0 0 0 0 0 0 0 
0 0 0 0 0 0 0 0 0 
0 0 0 0 0 0 0 0 0 
0 0 0 0 0 0 0 0 0 
0 0 0 0 0 0 0 0 0 
0 0 0 0 0 0 0 0 0 
0 0 0 0 0 6.46301e-07 0 0 0 
0 0 0 1.41391e-09 0 8.77784e-09 1.91427e-10 0 0 
0 0 0 0 0 0 0 0 1.35429e-09 
0 0 0 0 0 0 0 0 7.2804e-10 
0 0 0 0 0 0 0 0 0 
0 0 0 0 0 0 0 0 0 
6.45667e-07 1.2907e-09 0 0 3.73371e-10 0 0 0 0 
0 0 0 0 0 0 0 0 0 
0 0 0 0 0 0 0 0 0 
0 0 0 0 0 0 0 0 0 
0 0 0 0 0 0 0 0 0 
0 0 0 0 0 0 0 0 0 
1.05864e-09 1.34579e-10 0 0 1.14994e-09 0 6.45972e-07 5.27503e-09 2.96863e-09 
0 0 0 0 0 0 7.95002e-07 0 0 
0 0 0 0 0 0 0 0 0 
0 0 1.43494e-09 0 0 0 0 0 0 
0 0 0 0 1.02394e-09 0 0 0 0 
0 0 0 0 0 0 0 0 0 
0 0 0 0 0 0 0 0 0 
0 0 0 0 0 0 0 0 0 
0 0 0 0 0 0 0 0 0 
0 0 0 0 0 0 0 0 0 
0 0 0 0 0 0 2.10919e-09 0 0 
0 0 0 0 0 0 2.78264e-09 0 0 
0 0 0 0 0 7.39396e-07 1.41093e-08 0 0 
0 0 6.87942e-07 0 6.04484e-10 1.22745e-09 0 0 0 
0 0 0 0 1.60702e-09 0 1.60568e-09 0 0 
0 2.79782e-10 0 6.17357e-10 0 0 0 0 0 
0 0 0 0 0 0 0 0 0 
0 0 0 0 0 0 0 0 0 
0 0 0 0 0 0 0 0 0 
0 0 0 0 0 0 0 0 0 
0 0 0 0 0 0 0 0 0 
0 0 0 0 0 0 0 5.37487e-09 0 
1.75313e-09 0 0 0 0 0 0 0 2.37367e-09 
1.45943e-09 0 0 0 0 1.67957e-09 0 0 1.91768e-09 
0 0 0 0 0 0 1.58394e-09 0 0 
0 0 0 0 0 5.20902e-10 0 7.17989e-07 0 
7.17798e-07 0 0 0 0 0 0 0 6.65888e-07 
5.92004e-10 0 0 0 0 0 0 0 0 
0 0 0 0 0 0 0 0 0 
0 0 0 0 0 0 0 0 0 
0 0 0 0 0 0 0 0 0 
0 0 0 0 0 0 0 0 0 
0 0 0 0 0 4.27139e-09 0 1.26318e-09 0 
0 0 0 0 0 0 0 0 1.43199e-09 
0 0 0 0 0 3.37521e-10 0 0 0 
0 0 0 0 0 0 0 0 0 
0 0 0 0 0 0 0 3.188e-10 0 
0 0 2.76783e-09 0 0 0 0 6.7383e-10 1.2708e-09 
0 0 1.75305e-09 2.24796e-09 0 0 0 0 0 
0 0 0 0 0 0 0 0 0 
0 0 0 0 0 0 0 0 0 
0 0 0 0 0 0 0 0 0 
0 0 0 0 0 0 0 0 0 
0 0 0 0 0 0 0 2.77112e-09 1.49069e-09 
3.7768e-09 6.48824e-07 0 0 0 0 0 0 0 
0 0 0 3.20083e-10 6.49739e-07 0 0 0 0 
0 8.95841e-07 9.12458e-07 0 2.28417e-09 7.17794e-07 0 0 0 
0 0 0 0 0 0 0 1.60602e-09 0 
0 0 0 4.77636e-10 0 0 0 0 0 
0 0 0 1.24496e-09 0 0 0 0 0 
0 0 0 0 0 0 0 0 0 
0 0 0 0 0 0 0 0 0 
0 0 0 0 0 0 0 0 0 
0 0 0 0 0 0 0 0 0 
0 0 0 1.11887e-09 2.0613e-09 3.87215e-09 6.46211e-07 5.68516e-09 0 
0 2.4883e-09 0 0 0 0 0 0 0 
0 0 0 1.19279e-09 0 0 0 0 0 
0 0 0 0 0 0 0 3.021e-10 0 
0 0 5.80944e-10 0 0 0 0 0 0 
0 0 0 0 0 0 0 0 0 
0 6.67153e-07 0 0 0 0 0 0 0 
0 0 0 0 0 0 0 0 0 
0 0 0 0 0 0 0 0 0 
0 0 0 0 0 0 0 0 0 
0 0 0 0 0 0 0 0 0 
0 0 0 0 0 0 0 0 5.33581e-09 
0 0 1.31853e-09 0 0 0 0 0 0 
0 0 0 0 0 0 0 0 8.30074e-10 
2.36547e-09 0 0 0 0 0 0 0 5.50817e-10 
1.38898e-09 0 0 0 0 0 0 0 0 
0 0 0 0 0 1.99463e-09 2.60636e-10 0 0 
0 0 0 0 9.58593e-10 0 0 0 0 
0 0 0 0 0 0 0 1.13294e-09 0 
0 0 0 0 0 0 0 0 0 
0 0 0 0 0 0 0 0 0 
0 0 0 0 0 0 0 0 0 
0 0 0 0 0 0 0 0 0 
0 0 0 0 0 0 0 0 0 
0 0 0 0 0 0 0 0 0 
0 0 0 0 0 2.26243e-09 0 0 0 
0 0 0 0 0 0 0 2.91155e-10 0 
0 0 0 0 0 0 0 0 0 
0 0 0 0 0 2.30761e-09 0 0 8.45481e-10 
4.74103e-10 0 0 0 3.00724e-10 0 0 2.32711e-10 0 
7.17704e-07 0 0 0 0 0 0 0 0 
0 0 0 0 0 0 0 0 0 
0 0 0 0 0 0 0 0 0 
0 0 0 0 0 0 0 0 0 
8.71965e-10 0 0 0 0 0 0 1.21712e-09 0 
0 0 4.30473e-10 5.34638e-10 0 0 6.83947e-10 0 0 
0 0 0 0 0 0 0 8.74642e-07 8.72093e-07 
0 0 0 0 0 0 0 0 0 
0 0 0 0 0 0 0 0 6.46361e-07 
0 0 0 0 0 0 0 0 0 
0 6.54382e-07 7.27118e-09 0 0 0 0 0 0 
5.52644e-09 1.99791e-09 0 0 0 0 0 0 0 
0 0 0 0 0 0 0 0 0 
0 0 0 0 0 0 0 0 0 
0 0 0 0 4.77179e-10 0 0 0 0 
0 0 0 0 0 0 0 0 0 
1.35915e-09 0 0 0 0 0 0 0 0 
0 0 0 0 0 1.25051e-09 0 0 2.98101e-09 
0 0 2.07187e-09 0 0 1.05467e-09 6.45058e-07 0 0 
0 0 0 0 0 0 0 0 0 
0 0 0 0 0 0 4.18179e-09 0 0 
0 0 0 4.91016e-10 3.4992e-09 0 0 0 0 
1.12453e-09 0 7.24443e-07 1.88535e-09 3.12501e-10 0 0 0 0 
0 0 0 0 0 0 0 0 0 
0 0 0 0 0 0 0 0 0 
0 0 0 1.15733e-09 1.18689e-09 0 0 1.11907e-09 0 
0 0 0 0 0 0 0 0 0 
0 0 3.16416e-09 0 0 0 0 0 0 
0 0 0 0 0 0 0 2.17842e-09 0 
4.84966e-09 0 0 0 2.52841e-09 0 0 0 0 
0 0 1.1063e-09 0 0 0 0 0 0 
0 0 2.2586e-09 1.19003e-09 0 0 1.16112e-08 6.53261e-07 4.8971e-09 
0 0 0 0 0 0 0 0 0 
0 0 3.86763e-09 0 0 6.46149e-10 0 0 0 
0 0 0 0 0 0 0 0 0 
0 0 0 0 0 0 0 0 0 
0 0 0 0 0 0 0 0 0 
7.16817e-07 0 0 0 0 0 0 0 0 
0 0 4.68553e-09 6.46633e-07 0 0 2.00045e-09 0 6.97904e-07 
0 2.53319e-09 1.25893e-09 0 0 0 0 1.05455e-09 0 
0 0 0 0 0 0 0 0 0 
0 0 0 0 7.4991e-10 0 0 0 0 
0 0 1.48624e-09 0 4.79697e-10 0 0 0 0 
0 0 2.81851e-09 0 0 0 0 1.12801e-09 7.60434e-10 
0 0 0 3.23605e-09 0 0 1.17064e-09 0 0 
0 0 0 0 0 0 0 0 0 
0 0 0 0 0 0 0 0 0 
0 0 0 6.58642e-07 0 0 0 0 7.73208e-07 
0 0 0 0 0 0 0 0 0 
0 0 0 1.28474e-09 0 0 0 0 0 
0 0 7.04468e-07 0 0 3.74728e-09 0 0 0 
0 0 0 0 0 7.27609e-10 0 0 0 
1.06922e-09 0 0 8.4135e-10 0 0 0 0 0 
0 0 0 0 0 0 0 0 0 
0 1.00915e-09 0 0 0 6.55112e-07 0 0 1.24622e-09 
0 3.54377e-10 0 0 9.0034e-10 0 0 0 0 
0 0 0 0 0 0 0 0 0 
0 0 0 0 0 0 0 0 0 
0 0 1.83751e-09 3.85746e-09 0 0 0 0 0 
0 0 3.95465e-09 2.37856e-09 0 0 7.54686e-10 0 0 
0 0 0 0 1.275e-09 0 0 0 0 
1.80678e-09 0 0 0 0 0 3.01956e-09 5.51247e-09 0 
0 0 7.02861e-07 0 0 0 0 0 0 
0 0 0 0 0 0 4.42586e-09 1.79262e-09 0 
0 0 0 0 0 0 2.28433e-09 0 0 
0 0 2.39398e-09 0 0 0 0 0 0 
0 0 0 0 0 6.71875e-07 0 0 0 
4.69705e-10 0 0 0 0 0 0 0 0 
0 0 0 0 0 0 0 0 0 
0 0 0 0 4.52423e-10 0 0 1.85904e-09 7.09317e-07 
8.17686e-09 1.28258e-09 7.41097e-07 0 0 0 0 0 0 
0 8.13249e-10 0 0 0 0 0 0 0 
0 0 0 0 0 0 0 0 0 
0 0 0 0 0 0 5.34693e-10 0 0 
0 0 0 0 0 0 6.58178e-07 0 0 
0 0 0 0 0 0 6.4973e-07 2.04859e-09 0 
0 0 7.72944e-09 3.7542e-09 2.22565e-09 0 0 0 0 
0 0 1.02395e-09 0 0 0 0 0 0 
0 0 0 0 0 0 0 0 0 
0 0 0 0 0 0 0 0 0 
0 0 0 0 0 2.39733e-10 2.63538e-09 0 0 
1.00129e-09 0 0 0 0 0 1.39076e-09 1.10369e-09 0 
0 0 0 1.66249e-09 0 0 0 0 0 
0 0 6.15877e-10 0 0 0 0 0 0 
7.00162e-07 0 0 7.221e-07 4.22565e-09 0 0 0 0 
0 0 0 1.92361e-10 0 0 0 3.32626e-09 0 
0 0 0 1.57206e-09 1.34558e-09 0 0 0 0 
0 0 6.47664e-09 6.49936e-07 0 0 0 0 9.0123e-10 
0 0 0 0 2.6075e-09 0 0 0 0 
0 0 0 0 0 0 0 0 0 
0 0 0 0 0 0 0 0 0 
0 0 0 0 0 0 0 0 0 
0 0 0 2.84665e-09 0 0 0 3.81483e-09 3.19322e-10 
0 8.70015e-07 0 0 0 0 0 0 0 
0 0 0 0 0 6.04915e-10 0 7.19355e-07 0 
5.67666e-09 0 0 0 0 0 0 0 0 
0 0 0 0 1.8568e-09 0 0 3.71286e-09 0 
0 0 0 0 0 0 0 0 0 
0 0 0 0 0 0 0 0 0 
0 0 0 0 3.33539e-09 0 0 6.75015e-07 4.04615e-09 
0 0 2.87266e-10 0 0 0 0 0 0 
0 0 0 0 0 0 0 0 0 
0 0 0 0 0 0 0 0 0 
0 0 0 0 0 0 3.56915e-10 0 0 
3.97266e-09 0 8.83256e-07 0 0 0 0 0 0 
0 0 0 0 0 2.62515e-09 0 5.56419e-09 0 
0 0 3.48747e-09 0 0 0 0 8.00487e-10 0 
0 0 0 0 0 1.36701e-09 0 5.36284e-07 0 
0 0 0 0 0 0 2.45764e-09 3.45316e-09 0 
0 0 0 2.40705e-09 0 0 0 0 0 
0 0 0 0 0 0 0 0 4.77869e-10 
0 0 0 0 0 0 0 0 0 
0 0 0 0 0 0 0 0 0 
0 0 0 0 0 0 0 0 0 
0 0 0 0 0 0 0 0 0 
0 0 0 0 0 6.49148e-09 6.83063e-07 0 0 
0 8.10232e-10 0 0 6.22771e-10 0 0 0 0 
0 0 0 0 0 0 0 0 0 
0 0 0 0 0 0 0 0 6.09622e-09 
1.9484e-09 0 0 0 7.46352e-07 0 8.02141e-07 0 0 
0 0 0 0 0 0 0 0 0 
0 0 0 0 0 3.76175e-09 6.55452e-07 0 0 
5.63e-10 0 0 0 0 0 0 0 0 
0 0 0 0 0 0 0 0 0 
0 0 0 0 0 0 0 0 0 
0 0 0 0 0 0 0 0 0 
2.50253e-09 1.45103e-09 0 0 0 4.70826e-09 0 0 8.62449e-10 
0 1.6078e-09 0 0 0 0 0 0 0 
8.96951e-07 9.11234e-07 0 4.05342e-09 8.11701e-10 0 0 0 4.14192e-09 
0 0 0 0 6.02133e-10 0 0 0 3.8657e-10 
0 0 0 0 0 0 0 3.66646e-09 0 
1.46054e-09 0 0 0 0 0 0 0 0 
0 0 0 0 3.49969e-10 0 2.34859e-09 2.91635e-09 0 
2.29504e-09 2.66565e-09 0 7.20219e-10 0 0 0 0 0 
0 0 0 0 0 0 0 0 0 
0 0 0 0 0 0 0 0 0 
0 0 0 0 0 0 0 0 0 
0 0 0 2.16683e-09 0 0 0 0 0 
0 7.43548e-10 0 0 6.75313e-10 0 2.6722e-10 0 3.19317e-09 
0 0 0 0 0 1.45687e-09 0 0 3.54985e-09 
0 0 2.35473e-09 0 0 0 0 0 0 
0 0 0 0 0 0 3.50477e-10 0 3.89498e-09 
8.7399e-07 0 0 7.33474e-07 0 1.67218e-09 0 0 0 
0 0 0 0 0 0 0 0 0 
0 0 0 0 0 0 0 0 0 
0 0 0 0 0 0 0 0 0 
0 0 0 0 0 0 0 0 0 
0 0 0 0 0 0 0 0 0 
0 0 0 0 7.12797e-07 0 7.86889e-09 0 0 
4.20887e-09 3.98022e-09 0 2.61215e-09 0 5.92091e-10 0 0 0 
0 0 0 0 0 0 0 0 0 
0 7.59731e-07 0 0 0 6.58093e-07 0 8.28309e-10 0 
0 6.65006e-10 0 0 0 0 0 0 0 
8.28822e-07 0 0 0 3.24889e-09 0 0 0 0 
0 0 0 0 0 0 0 0 0 
0 0 0 0 0 0 0 0 0 
0 0 0 0 0 0 0 0 0 
0 0 0 0 0 0 0 0 0 
0 0 0 0 0 0 0 0 0 
0 0 1.0575e-09 0 0 0 0 7.76618e-07 4.76433e-09 
0 0 0 6.53222e-07 0 0 1.42808e-09 0 0 
0 1.59215e-09 0 0 7.10031e-07 0 8.39137e-10 0 0 
0 0 9.61108e-09 0 0 0 6.35428e-09 0 0 
0 0 0 0 0 9.08865e-10 8.57877e-10 0 0 
0 0 0 0 7.45928e-07 9.08534e-09 0 0 0 
0 0 0 0 0 0 0 0 0 
0 0 0 4.56811e-10 0 0 0 0 0 
0 0 0 0 0 0 0 0 0 
0 0 0 0 0 0 0 0 0 
0 0 0 0 0 0 1.13836e-09 0 0 
0 0 0 0 0 0 0 0 0 
2.84547e-09 0 0 4.00856e-09 4.94992e-09 0 1.39894e-09 0 0 
0 0 0 0 0 0 0 1.10425e-09 0 
0 8.77657e-07 0 8.18565e-07 0 0 0 0 0 
1.15253e-09 0 0 0 0 0 0 0 0 
0 0 0 0 0 0 0 0 0 
0 0 0 0 0 0 0 0 0 
0 0 0 0 0 0 0 0 0 
0 0 0 0 0 0 0 0 0 
0 0 0 0 0 0 0 0 0 
0 0 0 0 0 0 1.00934e-09 0 0 
6.08821e-10 0 0 0 0 6.06812e-10 1.96702e-09 2.2023e-09 9.46507e-09 
7.30998e-07 0 0 1.50085e-09 0 0 0 0 0 
0 0 0 0 0 0 0 0 0 
0 8.56125e-07 0 0 0 0 0 0 0 
0 0 0 0 9.19907e-10 6.66242e-07 0 3.09624e-09 0 
0 1.78234e-09 0 0 5.78935e-09 0 0 0 0 
0 0 0 0 0 0 0 0 0 
0 0 0 0 0 0 0 9.89096e-10 0 
0 0 0 0 0 0 0 0 0 
0 0 0 0 0 0 0 0 0 
0 0 0 0 0 0 0 6.43595e-07 0 
0 0 0 0 0 0 0 0 0 
0 0 1.6069e-09 0 1.91111e-09 1.35507e-09 9.21517e-10 1.25702e-09 3.61347e-10 
6.18307e-10 5.9353e-10 0 9.41792e-10 0 4.519e-10 0 0 0 
7.52429e-07 0 0 0 0 9.98832e-10 0 0 0 
0 0 0 1.56185e-09 0 0 4.50097e-09 0 3.20031e-09 
0 0 0 0 0 0 2.27674e-09 0 1.36568e-09 
0 3.52406e-10 0 0 0 0 0 0 0 
0 0 0 0 0 0 0 0 0 
0 0 0 0 0 0 0 0 0 
0 0 0 0 0 0 0 0 0 
0 0 0 0 2.94935e-10 0 2.20322e-09 1.9061e-09 0 
0 0 0 0 0 0 0 5.68721e-10 0 
1.59726e-09 1.27359e-09 0 0 0 0 0 0 0 
0 0 0 0 1.03916e-09 9.07704e-10 0 3.00743e-09 0 
0 0 0 0 0 0 7.22231e-10 0 0 
0 0 0 0 0 0 0 0 0 
4.07725e-09 0 0 8.43515e-07 0 8.39526e-07 8.76115e-09 0 0 
0 0 0 0 0 0 0 0 0 
4.0463e-10 0 0 0 4.57737e-09 0 0 0 0 
2.2055e-09 7.51762e-10 0 0 0 0 0 0 0 
0 0 0 0 0 0 0 0 0 
0 0 0 0 0 0 0 0 0 
0 0 0 0 1.65747e-09 0 0 0 0 
0 0 0 0 0 0 0 0 0 
0 0 0 0 0 0 7.51748e-10 0 0 
0 0 4.94849e-09 0 0 3.86343e-09 0 0 0 
0 0 0 0 0 0 0 0 0 
6.7443e-07 2.35639e-09 0 0 0 8.78276e-07 0 3.30383e-09 2.62137e-09 
7.07958e-10 0 0 0 0 0 0 0 0 
0 0 0 0 0 0 0 0 7.15177e-07 
1.61468e-09 0 0 0 0 0 0 0 0 
0 0 0 0 0 0 0 0 0 
0 0 0 0 0 0 0 0 0 
0 0 0 0 0 0 0 6.43903e-07 0 
0 0 0 0 0 0 0 0 0 
0 0 0 0 6.48137e-07 0 0 0 0 
0 0 0 0 9.04668e-07 8.90787e-07 0 0 0 
0 0 0 0 0 0 0 0 0 
2.64671e-09 0 0 0 0 0 0 0 0 
0 0 0 0 0 4.42377e-10 0 0 0 
0 0 0 0 0 5.64302e-09 6.98027e-07 0 0 
0 0 0 0 0 0 0 0 0 
0 0 0 0 0 0 0 0 0 
0 0 0 0 0 0 0 0 0 
0 0 0 0 0 0 0 0 2.07545e-09 
0 0 0 0 0 0 0 0 0 
0 0 0 0 3.13693e-09 0 0 2.30511e-09 0 
0 0 0 0 0 1.28566e-08 0 0 5.40063e-10 
0 0 0 0 0 0 0 4.13413e-10 0 
0 0 0 0 0 0 0 0 0 
0 0 0 0 0 0 0 2.50353e-10 0 
0 0 0 0 0 0 0 0 0 
0 0 7.09411e-07 0 0 0 0 0 0 
0 0 0 0 0 0 0 0 0 
0 0 0 0 0 0 0 0 0 
0 0 0 0 6.43308e-10 0 0 0 0 
1.58383e-09 0 0 0 0 0 0 0 0 
0 0 0 0 0 3.4949e-09 0 0 8.23066e-10 
6.32518e-10 0 0 0 0 0 0 0 3.28333e-09 
6.28331e-10 0 0 0 7.37172e-10 0 0 0 0 
0 0 0 3.79407e-10 0 0 0 0 3.48195e-09 
2.84809e-09 0 0 0 0 0 0 0 1.87515e-10 
0 0 0 0 0 0 6.85967e-07 1.0429e-09 1.38863e-09 
0 0 0 0 0 0 0 3.82126e-10 0 
0 0 0 0 0 0 0 0 0 
0 0 0 0 0 0 0 0 0 
0 0 0 0 0 0 0 0 0 
0 0 0 0 0 0 0 0 0 
0 0 4.05369e-10 0 0 0 0 2.63195e-09 0 
0 0 0 0 1.9967e-09 2.93884e-09 6.76176e-07 0 0 
1.52507e-09 0 1.16999e-09 0 0 0 0 0 0 
0 0 0 0 3.64413e-10 0 0 0 0 
0 0 0 0 0 0 3.8957e-09 0 0 
1.43362e-09 0 0 6.5367e-07 0 1.48262e-09 6.66564e-10 0 0 
3.77631e-09 0 0 0 0 2.04632e-09 0 0 0 
1.63348e-10 0 0 0 0 0 0 0 0 
0 0 0 0 0 0 0 0 0 
0 0 0 0 0 2.19163e-09 0 0 0 
0 0 0 0 0 0 0 0 0 
0 0 0 0 0 0 6.48091e-07 0 0 
0 0 0 0 0 0 0 0 0 
0 0 0 0 0 0 0 0 0 
0 0 0 0 0 0 0 0 0 
0 0 2.0759e-09 0 0 2.16999e-09 5.24566e-09 6.48901e-07 0 
0 0 0 0 9.26181e-09 0 0 0 0 
0 1.49224e-09 0 0 0 0 0 0 1.59886e-09 
0 0 0 0 0 0 0 0 0 
0 0 0 0 0 0 0 0 0 
0 0 0 0 0 6.95109e-10 6.44358e-07 4.1401e-09 1.39739e-09 
0 3.77622e-10 0 0 0 0 0 0 0 
0 0 0 0 0 0 0 0 0 
0 0 0 0 0 0 0 1.2119e-09 1.72163e-09 
2.32917e-09 0 0 8.02471e-10 0 0 1.3657e-09 6.7585e-07 0 
0 0 0 0 0 0 0 0 0 
0 0 0 0 4.92773e-09 0 0 2.9039e-09 0 
0 0 0 1.32865e-09 0 0 0 0 1.05568e-09 
0 0 0 0 0 0 0 6.59722e-07 0 
0 0 0 0 0 0 0 0 0 
0 0 0 0 0 0 0 0 0 
0 0 0 0 0 0 0 0 0 
0 0 3.94294e-10 0 0 0 0 0 0 
0 0 0 0 0 0 0 0 6.57076e-10 
0 1.2296e-09 6.67541e-10 0 0 0 0 0 0 
0 0 0 0 5.57549e-10 0 2.69501e-09 0 0 
0 0 0 0 0 0 0 0 0 
0 0 0 0 0 6.48166e-07 0 0 0 
0 0 0 0 0 0 0 0 0 
4.01767e-09 0 6.56184e-07 0 0 1.77314e-09 0 0 0 
0 0 0 0 0 0 0 0 0 
0 0 0 0 0 0 0 0 0 
0 0 0 0 0 0 0 0 0 
1.47803e-09 0 0 0 0 0 0 0 0 
0 0 0 0 0 0 0 0 0 
1.17662e-09 0 9.05575e-10 0 0 0 0 0 0 
0 0 0 0 0 0 0 9.64227e-10 0 
0 0 0 9.83534e-07 9.11375e-07 0 0 0 0 
0 0 4.47815e-10 0 0 0 0 0 0 
1.31987e-09 0 0 0 0 0 0 0 0 
0 0 0 0 0 0 0 0 0 
0 0 0 0 0 0 0 0 0 
0 0 0 0 0 0 0 0 0 
0 0 0 0 0 0 0 0 0 
0 2.28853e-10 0 0 0 0 0 0 0 
0 0 0 0 0 0 0 0 0 
0 3.68202e-10 0 0 0 0 0 0 2.80525e-10 
0 0 0 0 0 0 0 0 0 
0 0 0 8.28184e-07 0 0 1.06594e-08 0 0 
0 0 0 0 0 0 0 7.72218e-10 0 
0 0 0 0 0 0 0 0 0 
0 0 0 0 0 0 0 3.78281e-10 0 
0 0 1.71682e-09 5.14209e-10 0 0 0 0 0 
0 0 0 0 0 0 0 0 0 
0 0 0 0 0 0 0 0 1.02447e-09 
0 0 0 0 0 0 0 0 0 
8.34194e-10 0 0 0 0 0 1.9269e-09 0 0 
0 0 0 4.07612e-10 0 0 3.81337e-09 6.46553e-07 0 
0 0 0 0 0 0 0 0 0 
6.691e-07 0 3.41096e-09 0 0 0 0 0 0 
0 0 0 0 0 0 0 0 0 
0 0 0 4.96735e-10 0 0 0 0 0 
6.65e-07 0 0 1.19801e-09 1.17757e-09 0 0 0 0 
2.06848e-09 6.56061e-07 0 0 0 0 0 0 0 
0 0 0 0 0 0 0 0 0 
0 0 0 0 0 0 0 2.13671e-10 4.23579e-10 
0 0 0 0 0 0 0 0 0 
0 0 0 0 0 8.41465e-09 6.77124e-07 0 0 
0 8.14281e-10 0 8.64089e-10 0 0 0 0 0 
0 0 0 0 0 0 0 1.83848e-09 0 
0 6.1057e-09 0 0 0 0 0 0 0 
0 0 0 0 0 0 0 0 0 
0 0 0 0 0 0 0 0 0 
0 0 4.43792e-10 2.58758e-09 0 0 0 0 1.85651e-09 
0 9.86388e-09 0 0 0 0 0 0 0 
0 0 0 0 0 0 0 0 0 
0 0 0 0 0 0 0 0 0 
0 0 0 6.4424e-07 0 0 0 9.54415e-10 0 
0 0 0 0 6.7785e-07 0 0 0 0 
0 0 0 5.27235e-10 0 0 0 3.20531e-09 0 
2.07707e-09 0 0 0 0 0 0 9.8225e-10 6.55812e-07 
4.76947e-09 3.09861e-09 0 0 0 0 0 0 0 
0 0 0 8.62775e-10 0 0 0 0 0 
0 0 0 0 0 0 0 0 2.32584e-09 
0 0 0 0 0 0 0 0 0 
0 4.72807e-10 0 0 0 0 0 0 0 
0 0 0 0 0 0 0 0 0 
0 0 0 0 0 0 0 0 0 
0 0 0 6.60755e-10 2.06027e-09 0 0 0 0 
0 0 0 7.17795e-10 0 0 1.48567e-09 0 0 
0 2.23949e-09 0 0 0 0 0 0 0 
0 0 0 0 0 0 0 0 0 
9.14971e-10 2.1937e-09 0 0 0 1.57666e-09 0 0 0 
0 0 1.82309e-09 6.67285e-07 5.10375e-09 0 0 0 0 
0 0 0 0 0 0 0 0 0 
0 0 0 0 0 1.32131e-09 0 0 0 
6.51628e-07 0 0 0 0 0 0 0 0 
0 0 0 0 0 0 0 0 0 
0 0 0 0 0 0 0 0 0 
0 0 0 0 0 0 7.46643e-10 7.48563e-11 1.0338e-09 
6.47727e-10 0 0 3.33499e-09 0 0 0 0 2.06044e-09 
2.08813e-09 2.33277e-09 7.36144e-07 4.72666e-09 0 3.06398e-09 0 6.62092e-07 0 
0 0 0 0 1.28774e-09 0 0 0 0 
0 0 0 7.31435e-10 0 0 0 0 0 
0 0 0 0 0 0 0 0 9.71394e-10 
0 0 0 0 0 0 0 0 0 
0 0 0 9.80217e-07 1.08194e-06 0 0 0 0 
0 0 0 0 0 0 0 0 0 
0 0 0 0 0 0 0 0 0 
0 0 0 0 0 0 0 0 0 
0 0 0 0 2.97513e-10 0 0 0 0 
0 0 0 0 0 7.06247e-07 0 0 2.03766e-09 
0 0 4.63204e-09 1.13986e-09 0 0 0 0 0 
0 0 0 0 0 6.70897e-07 0 1.56862e-09 0 
0 0 0 0 0 0 0 0 4.47477e-10 
0 0 0 0 0 0 4.81406e-09 0 4.93577e-10 
0 0 0 0 0 0 0 0 0 
0 0 0 0 0 9.84172e-07 0 0 0 
1.63834e-09 0 0 0 0 1.25467e-09 0 0 7.64628e-07 
0 0 0 0 0 0 0 0 0 
0 0 0 0 0 0 0 0 0 
0 0 0 0 0 0 0 0 0 
0 0 0 0 5.07529e-10 0 0 0 9.27904e-10 
0 2.48333e-09 0 0 7.4184e-07 0 2.99563e-09 0 3.34454e-09 
0 0 0 0 0 0 0 0 0 
0 0 0 0 0 7.54642e-10 0 0 1.37559e-10 
0 0 0 0 0 0 0 6.79022e-07 0 
0 2.44105e-09 0 0 0 0 0 0 0 
0 0 0 1.35009e-09 0 0 0 0 0 
2.13771e-09 3.438e-09 0 0 0 0 0 0 0 
0 7.68278e-07 0 0 0 0 0 0 0 
0 0 0 0 0 0 0 0 0 
0 0 0 0 0 0 0 0 0 
0 0 0 0 0 6.27639e-09 6.95044e-07 3.09986e-09 0 
1.49817e-09 0 0 2.21291e-09 0 0 3.73933e-10 0 1.47088e-09 
0 0 4.09152e-09 6.63287e-07 0 0 0 0 0 
0 0 0 0 0 0 0 0 0 
0 0 0 7.62128e-07 7.93653e-09 0 0 0 0 
1.89044e-09 0 7.21292e-09 0 0 0 0 0 0 
0 4.13449e-10 0 0 0 0 1.05885e-09 4.06013e-09 8.74428e-10 
0 6.66777e-07 3.94558e-09 2.14979e-09 0 0 0 0 0 
0 0 0 3.67662e-09 0 0 0 0 0 
0 0 0 0 0 0 0 0 0 
0 0 0 0 0 0 0 0 0 
0 0 0 5.64808e-10 0 0 2.57621e-09 0 0 
0 0 0 5.69802e-10 0 0 0 0 3.62346e-09 
0 0 1.09735e-09 0 0 9.59456e-09 0 0 0 
6.70862e-07 0 2.52104e-09 0 0 0 0 0 0 
0 0 0 3.83148e-10 0 7.64291e-07 0 0 0 
0 0 1.27556e-09 3.87518e-09 0 0 0 9.73388e-10 0 
0 0 0 0 0 0 0 0 0 
0 0 0 1.51374e-09 0 0 0 0 0 
0 0 0 0 3.66601e-09 0 0 0 0 
0 0 0 0 0 0 0 0 0 
0 0 0 0 0 0 0 0 0 
0 0 0 0 0 0 0 0 0 
0 1.28167e-09 0 0 4.8696e-10 4.43171e-10 0 0 6.72953e-07 
0 0 1.67777e-09 8.76034e-10 0 0 2.68416e-10 0 0 
0 0 6.44816e-10 2.40076e-09 0 0 6.60869e-07 0 0 
0 0 0 2.12356e-09 0 0 0 0 0 
0 0 0 0 9.33237e-07 9.61369e-07 1.59913e-09 0 0 
0 0 3.54261e-09 5.53074e-10 6.54778e-07 0 0 0 0 
0 0 3.08871e-09 0 0 7.13789e-10 0 0 0 
0 0 4.80216e-09 0 2.07332e-09 0 0 0 0 
0 0 0 0 0 0 0 0 0 
0 0 0 0 0 0 0 0 0 
0 0 0 0 0 0 0 0 0 
0 0 7.54054e-10 6.05762e-10 0 0 0 0 0 
0 0 0 9.96694e-10 0 0 0 0 0 
0 8.71201e-10 0 1.15303e-09 0 7.92914e-10 0 0 0 
2.01129e-09 1.22033e-09 0 0 0 0 1.72851e-09 0 0 
0 0 0 0 0 0 0 0 0 
0 0 0 0 0 5.20657e-09 0 0 0 
0 0 0 0 0 1.69166e-10 0 4.49355e-10 0 
0 0 0 4.59287e-09 8.20833e-07 0 0 0 0 
0 0 0 0 0 0 0 0 0 
0 0 0 0 0 0 0 0 0 
0 0 0 0 0 0 4.26758e-10 0 0 
0 1.18961e-09 0 0 0 0 0 9.87279e-10 0 
0 0 0 0 0 0 0 4.61907e-10 0 
0 0 1.61195e-09 0 0 0 3.09257e-09 0 2.30859e-09 
0 1.44287e-09 1.18837e-09 0 0 0 0 0 0 
0 0 0 0 0 0 0 1.00018e-06 9.68568e-09 
0 0 0 0 2.29743e-09 0 0 3.68715e-10 0 
0 0 0 0 0 0 0 0 0 
0 0 3.32942e-09 0 9.80465e-07 0 0 0 1.6534e-09 
0 0 0 0 0 0 0 0 0 
0 0 0 0 0 0 0 0 0 
0 0 0 0 0 0 4.76364e-10 0 1.73739e-09 
5.24447e-09 0 0 0 5.42493e-10 0 0 0 6.50776e-07 
4.14413e-09 5.66615e-10 0 0 0 0 1.80344e-09 0 0 
0 0 0 0 0 0 0 6.7062e-07 0 
0 0 0 0 0 0 0 0 0 
0 0 0 0 2.24798e-09 0 0 0 9.38711e-07 
0 0 0 0 7.45372e-07 0 0 0 0 
0 0 0 0 0 0 0 1.67365e-09 0 
0 6.76319e-07 1.36569e-09 0 0 9.1703e-07 0 0 6.41466e-10 
9.19008e-10 0 0 0 0 0 0 0 0 
0 0 0 0 0 0 0 0 0 
0 0 0 0 0 0 0 0 0 
0 0 0 5.94837e-10 0 0 7.60597e-10 0 0 
0 0 0 0 0 0 0 0 0 
0 0 0 0 0 0 0 0 1.07027e-09 
0 1.11402e-09 2.5476e-09 0 0 0 0 0 0 
0 0 0 1.92351e-09 0 7.77478e-10 1.38171e-09 0 0 
0 0 0 9.46648e-07 0 1.26187e-09 0 0 0 
1.04469e-09 0 0 0 0 0 6.64535e-07 0 0 
0 0 4.17624e-09 0 4.90024e-09 0 0 0 0 
2.8574e-10 0 0 0 0 0 0 0 0 
0 0 0 0 0 0 0 0 0 
0 0 0 0 0 0 6.34858e-10 0 0 
0 6.17982e-09 6.7608e-07 5.63196e-09 0 4.64708e-10 0 0 0 
0 6.41659e-10 1.52339e-09 0 0 0 0 8.96876e-10 6.51472e-07 
0 1.90931e-09 0 0 0 0 2.4974e-10 0 0 
0 0 9.25639e-09 7.36205e-07 0 3.86918e-09 0 1.50014e-09 0 
0 1.43007e-09 0 1.48029e-09 0 1.22538e-09 0 2.57577e-10 0 
0 0 1.75434e-09 0 9.10838e-07 5.672e-10 0 3.60245e-09 0 
6.95292e-07 0 1.55297e-09 6.85124e-07 4.31161e-09 0 0 7.03578e-09 0 
0 2.37308e-09 0 0 0 5.80532e-10 0 0 0 
1.67917e-09 1.02597e-09 0 0 0 0 0 0 0 
0 0 0 0 0 0 0 0 0 
0 0 0 0 0 0 0 0 0 
0 0 0 0 0 6.87038e-10 0 0 0 
5.23805e-10 0 0 0 0 0 0 0 0 
1.09708e-09 0 0 0 0 0 0 0 0 
1.11767e-09 0 0 0 0 0 7.63825e-07 0 1.53867e-09 
0 1.78707e-09 0 0 0 0 0 0 0 
0 0 0 0 0 0 0 0 0 
0 0 0 0 0 0 0 0 0 
0 0 0 0 0 6.06408e-09 0 0 0 
0 0 0 0 0 0 0 0 0 
0 0 0 0 0 0 0 0 0 
0 0 0 0 0 0 0 0 0 
0 0 0 0 0 0 0 7.64064e-10 0 
0 4.00751e-10 0 0 0 0 0 0 0 
3.9525e-10 0 0 0 0 0 0 0 0 
0 0 0 0 0 0 0 1.29701e-09 0 
3.2718e-09 0 0 0 6.78575e-07 0 0 0 0 
0 1.12971e-09 0 0 0 0 2.70145e-10 0 0 
0 0 6.10499e-10 0 0 0 0 0 0 
9.99151e-10 0 0 0 0 7.77272e-07 0 0 0 
0 0 0 0 0 0 0 0 0 
0 0 0 0 0 0 0 0 0 
0 0 0 0 0 0 0 0 0 
9.75882e-10 0 0 8.74409e-07 8.9097e-07 0 0 3.61338e-10 0 
0 0 0 6.19922e-09 0 2.49761e-10 0 0 2.36687e-10 
8.0327e-10 0 0 0 0 0 0 0 0 
0 0 0 0 0 0 0 8.73549e-07 1.10297e-09 
0 0 0 0 5.10771e-09 1.87572e-09 0 0 6.73559e-07 
0 1.54131e-09 0 0 6.59814e-07 0 0 0 0 
3.98776e-10 0 0 0 1.61241e-09 0 0 0 0 
0 0 6.82899e-07 0 0 0 0 7.65329e-07 0 
0 0 0 0 0 0 0 0 0 
0 0 0 0 0 0 0 0 0 
0 0 0 0 0 0 0 0 0 
0 1.55106e-09 0 0 0 0 5.11048e-09 0 0 
1.7615e-09 1.88633e-09 0 0 0 6.44685e-07 7.02965e-09 3.05946e-09 0 
0 0 0 0 6.50739e-07 2.55813e-09 1.56137e-09 0 1.29482e-10 
0 0 4.18998e-10 0 0 0 0 0 0 
0 0 0 0 0 0 0 0 9.07714e-10 
0 0 0 0 0 0 0 9.40121e-10 0 
1.51362e-09 0 6.58197e-07 0 0 0 2.23361e-09 0 0 
6.82653e-07 0 0 2.51522e-09 0 0 0 0 0 
0 0 0 0 0 0 0 0 0 
0 0 0 0 0 0 0 0 0 
0 0 0 0 0 0 0 0 0 
0 0 0 7.49246e-10 1.79026e-09 0 0 0 0 
0 0 1.33189e-09 0 0 0 1.75209e-09 0 0 
0 0 0 0 0 3.7407e-09 0 0 0 
0 0 0 0 0 0 0 9.88781e-07 1.1525e-06 
1.04517e-06 0 0 0 7.71212e-07 0 0 3.12878e-09 0 
0 0 0 0 0 0 0 0 0 
0 0 0 2.89777e-09 0 0 0 9.533e-10 0 
0 0 0 0 0 6.71489e-10 0 0 1.09894e-09 
2.99134e-09 0 0 0 0 0 0 0 0 
0 0 0 0 0 0 0 0 0 
0 0 0 0 0 0 0 0 0 
0 0 0 0 0 2.92284e-09 0 0 6.945e-09 
8.73337e-07 0 0 1.31412e-09 0 0 0 0 0 
0 0 2.43992e-10 0 0 0 2.66706e-09 0 0 
0 0 0 0 0 0 0 0 0 
0 0 0 0 0 0 6.09199e-09 7.32163e-07 0 
0 3.35098e-09 0 0 0 0 0 0 0 
0 8.54676e-10 0 0 0 0 0 0 6.6165e-07 
0 0 0 0 3.34441e-10 0 0 0 0 
2.69039e-10 0 0 0 0 0 0 0 0 
0 0 0 0 0 0 0 0 0 
0 0 0 0 0 0 0 0 0 
0 0 0 0 0 0 0 0 4.04429e-09 
0 8.63144e-07 0 0 0 0 0 0 0 
1.06685e-09 0 0 0 0 0 1.02567e-09 0 0 
0 0 0 0 0 0 8.31728e-10 0 0 
0 1.92437e-09 0 0 0 7.38002e-07 0 0 3.46086e-09 
0 0 0 0 0 0 0 0 0 
0 0 0 0 0 0 0 0 0 
0 0 1.793e-09 0 0 0 0 0 0 
0 0 0 0 0 0 0 0 0 
0 0 0 0 0 0 0 0 0 
0 0 0 0 0 0 0 0 0 
0 0 0 0 0 0 9.16753e-10 0 0 
0 0 1.8157e-08 0 0 0 0 0 0 
0 3.52319e-10 0 0 0 0 0 0 0 
0 0 0 0 0 1.03263e-09 0 0 0 
4.89189e-09 7.08319e-07 0 0 0 0 6.27015e-09 0 0 
0 0 0 0 8.64026e-07 0 0 0 0 
0 0 0 0 0 0 0 0 0 
1.35615e-09 0 0 0 0 2.62724e-09 2.40242e-09 0 8.61184e-10 
1.18604e-09 0 0 0 0 0 0 0 0 
0 0 0 0 0 0 0 0 0 
0 0 0 0 0 0 0 0 0 
0 0 0 0 0 0 0 0 0 
0 0 1.97421e-09 0 0 2.15835e-10 5.84251e-10 0 0 
0 0 0 0 0 0 0 0 0 
0 0 0 0 0 2.80572e-09 6.46737e-07 5.45159e-09 0 
0 0 2.21606e-09 0 8.95932e-10 0 0 2.09743e-09 0 
0 0 0 0 2.87994e-09 8.6001e-07 0 0 0 
0 0 0 0 0 0 0 0 0 
0 0 0 0 0 0 0 0 2.14614e-09 
0 0 0 0 0 0 0 0 0 
0 0 0 0 0 0 0 0 0 
0 0 0 0 0 0 0 0 0 
0 0 0 0 0 0 0 0 0 
0 0 6.3246e-10 0 0 0 0 0 0 
0 0 0 0 0 0 0 0 0 
0 0 0 0 0 0 9.79591e-10 3.75887e-09 0 
0 0 0 2.68095e-09 0 0 0 0 0 
0 0 0 0 0 0 0 0 0 
0 0 0 0 0 1.00668e-09 0 0 0 
0 0 0 0 0 8.52425e-10 1.39533e-09 0 6.5186e-07 
0 1.55505e-09 0 0 0 0 0 0 0 
0 0 0 0 0 0 0 0 0 
0 0 0 0 0 0 0 0 0 
0 0 0 0 0 0 0 0 6.43768e-07 
0 0 9.88596e-10 0 2.86509e-09 3.58813e-09 2.57242e-10 4.48117e-10 0 
9.24999e-10 0 0 4.62676e-10 0 0 0 0 0 
0 0 0 0 0 0 0 0 7.37561e-10 
0 0 0 0 9.5229e-10 0 0 0 0 
0 0 0 0 0 1.35027e-09 0 5.14776e-09 0 
0 0 0 0 6.3748e-09 0 6.58037e-10 0 0 
0 0 0 0 0 0 0 0 0 
2.08876e-09 0 0 0 0 0 0 0 0 
0 0 0 0 0 0 0 0 0 
0 0 0 0 0 0 0 0 0 
0 0 0 0 0 0 0 0 0 
1.75337e-09 0 0 8.21237e-10 0 0 0 0 0 
0 0 0 0 0 0 0 0 0 
0 0 0 0 0 0 0 0 1.14247e-09 
0 0 0 0 0 0 0 0 0 
0 0 0 0 0 0 0 0 0 
0 0 3.66439e-09 0 0 6.81469e-07 0 0 0 
0 0 0 0 0 0 0 0 0 
0 0 0 0 0 0 0 1.48165e-09 0 
0 0 0 0 0 0 0 0 0 
0 0 0 0 0 0 0 0 0 
0 0 0 0 0 0 0 0 0 
0 0 0 0 0 0 0 0 6.58305e-07 
0 0 0 2.04361e-09 0 0 0 0 0 
0 0 0 6.2904e-10 0 0 0 0 0 
0 0 0 0 0 0 0 0 0 
0 0 0 0 0 0 0 0 1.30701e-09 
0 0 0 0 0 9.1265e-10 0 0 0 
0 0 0 0 0 0 0 0 0 
9.96739e-10 0 0 0 0 2.25727e-09 0 0 0 
0 0 0 5.65505e-10 0 0 0 0 0 
0 0 0 0 0 0 0 0 0 
0 0 0 0 0 0 0 0 0 
0 6.62368e-10 0 0 0 0 0 0 0 
0 0 4.28836e-09 0 6.72088e-07 0 0 1.56708e-09 4.9799e-10 
0 0 0 0 0 0 0 0 0 
0 0 2.71301e-10 3.9426e-10 0 0 0 0 0 
0 0 0 0 0 0 0 0 0 
0 9.14231e-10 0 0 5.88268e-09 6.7816e-07 5.61247e-09 0 0 
3.96864e-09 0 0 0 0 0 0 0 0 
0 0 0 0 6.51968e-07 0 0 0 0 
0 2.06622e-09 0 0 0 0 0 0 0 
0 0 0 0 0 0 0 0 0 
0 0 0 0 0 0 0 0 0 
0 0 0 0 0 3.74495e-10 0 0 0 
0 0 0 0 0 0 0 0 0 
0 0 0 8.08642e-10 0 0 0 0 0 
0 0 0 0 0 0 3.82075e-09 6.45211e-07 0 
0 0 0 0 0 0 0 7.3993e-10 0 
6.46648e-07 5.2387e-09 0 0 0 0 0 0 0 
0 6.62195e-07 0 0 0 0 0 0 0 
0 0 1.20257e-09 0 0 0 0 0 0 
0 0 8.5563e-07 0 0 0 0 0 0 
0 0 0 0 0 0 0 0 0 
0 0 0 0 0 0 0 0 0 
0 0 0 0 0 0 0 0 0 
0 0 0 0 0 0 0 0 4.32613e-10 
0 0 0 0 0 0 6.69564e-07 0 4.26949e-09 
0 0 0 0 0 0 1.98409e-09 8.12528e-10 0 
0 1.50426e-09 0 0 0 0 0 0 0 
0 0 1.73851e-09 0 0 0 1.37708e-09 0 0 
0 1.6041e-10 0 3.70986e-09 0 0 0 0 0 
0 0 0 0 3.27541e-10 0 0 0 1.38178e-09 
0 2.87717e-09 0 8.5536e-07 4.75294e-09 0 5.50511e-10 0 0 
0 0 0 0 0 0 0 0 0 
0 0 0 0 0 0 0 0 0 
0 0 0 0 0 0 0 0 0 
0 3.03582e-09 0 0 0 0 6.9353e-07 2.42611e-09 0 
0 1.15494e-09 0 0 0 0 0 0 0 
0 0 0 8.11969e-07 9.39714e-10 1.40658e-09 0 0 0 
0 0 0 0 0 0 0 0 0 
3.17338e-09 0 0 0 0 0 0 0 0 
9.95302e-10 0 0 4.50583e-10 0 0 0 0 0 
0 0 0 0 0 0 1.98625e-09 0 0 
0 0 0 0 0 0 1.41647e-09 0 0 
0 0 0 0 0 0 0 0 0 
0 0 0 0 0 0 0 0 0 
0 0 0 3.19522e-10 0 0 3.68784e-09 1.23676e-09 2.83623e-09 
0 1.44469e-09 0 2.69062e-09 8.08938e-07 0 0 0 3.51788e-09 
0 0 0 0 0 0 0 0 0 
0 0 7.33758e-07 0 2.89578e-09 7.85729e-07 9.05632e-09 0 0 
0 0 0 0 0 0 0 0 0 
1.32047e-10 0 0 0 0 0 4.87396e-10 0 0 
0 6.68407e-10 0 0 0 0 0 0 0 
0 0 0 0 0 0 0 0 0 
0 0 0 0 0 0 0 2.32389e-09 0 
0 0 0 0 0 0 0 0 0 
0 0 0 0 0 0 0 0 0 
0 0 0 0 0 0 0 6.4709e-07 0 
0 0 0 0 8.79947e-07 4.59574e-09 0 0 4.83915e-10 
0 0 0 1.71249e-10 0 0 0 6.59411e-07 0 
0 0 3.38938e-09 7.75795e-09 0 0 0 0 4.09726e-09 
0 0 0 0 0 0 0 0 0 
0 0 0 0 8.52701e-10 0 0 0 0 
0 0 0 0 0 0 0 0 0 
0 0 0 0 0 0 0 0 0 
0 0 0 0 0 0 0 0 0 
0 0 0 0 0 0 0 0 0 
0 0 0 0 0 0 0 0 0 
0 0 0 0 0 4.80439e-10 0 8.46593e-10 4.25199e-09 
3.70932e-09 0 0 0 7.88094e-07 0 0 4.57619e-09 1.5153e-09 
2.79297e-09 3.06342e-09 1.91515e-09 4.06974e-09 0 0 0 0 0 
0 9.40525e-10 3.30716e-10 0 0 0 0 0 0 
0 0 0 0 0 0 0 0 0 
0 0 6.94578e-07 0 0 0 0 0 0 
0 0 0 0 0 0 0 0 0 
0 0 0 0 0 0 0 0 0 
0 0 0 0 0 0 0 0 0 
0 0 0 0 0 0 0 0 0 
0 0 0 0 0 0 0 0 0 
0 0 0 0 0 0 0 0 0 
0 0 0 0 3.42842e-09 0 0 6.56072e-09 0 
0 4.09647e-10 0 0 6.48122e-07 1.74949e-09 0 0 0 
0 0 0 8.28245e-10 0 0 0 0 6.01864e-10 
1.24065e-09 0 0 0 0 0 0 0 0 
0 5.50018e-10 9.88651e-10 6.16277e-09 6.12977e-09 6.94399e-07 0 0 0 
0 0 0 0 0 0 0 0 0 
0 0 0 0 0 0 0 0 0 
0 0 0 0 0 0 0 0 0 
0 0 0 0 0 0 0 0 0 
0 0 0 0 0 0 0 0 0 
0 0 0 0 0 0 0 0 1.94472e-10 
0 0 0 3.01597e-10 0 0 0 0 0 
8.69675e-10 0 0 0 0 0 0 1.48814e-09 0 
0 0 0 0 0 0 0 0 0 
0 0 0 0 0 0 0 0 0 
0 0 0 0 0 0 8.35345e-09 0 1.57534e-09 
0 0 0 0 0 0 0 0 0 
0 0 0 0 0 0 0 0 0 
0 0 0 0 0 0 0 0 0 
0 0 0 0 0 0 0 0 0 
0 0 0 0 0 0 0 0 0 
0 0 0 0 0 0 0 0 0 
0 0 0 0 0 0 0 0 0 
0 0 0 0 3.95183e-10 0 0 0 0 
0 0 0 0 0 0 1.79442e-10 0 0 
0 0 0 0 0 0 0 0 0 
0 0 0 0 0 0 0 0 1.7701e-09 
0 0 0 0 0 0 0 0 0 
0 0 0 0 0 0 0 0 0 
0 0 0 0 0 0 0 0 0 
0 0 0 0 0 0 0 0 0 
0 0 0 0 0 0 0 0 0 
0 0 0 0 0 0 0 0 0 
0 0 0 0 0 0 0 0 0 
0 3.29463e-10 3.81693e-10 0 0 0 0 0 0 
0 0 0 0 0 0 0 0 0 
0 0 0 0 0 0 0 0 0 
0 0 0 0 0 0 0 0 6.56965e-10 
0 0 0 0 0 0 0 0 0 
0 0 0 0 0 0 0 0 0 
0 0 0 0 0 0 0 0 0 
0 0 0 0 0 0 0 0 0 
0 0 0 0 0 0 0 0 0 
0 0 0 0 0 0 0 0 0 
0 0 0 0 0 0 0 0 0 
0 0 0 0 0 0 0 0 0 
2.83821e-10 0 0 0 0 0 0 0 0 
0 0 0 0 0 0 0 0 0 
0 0 0 0 0 0 0 0 0 
5.0309e-10 0 0 0 0 0 0 0 0 
0 0 0 0 0 0 0 0 0 
0 0 0 0 0 0 0 0 0 
0 0 0 0 0 0 0 0 0 
0 0 0 0 0 0 0 0 0 
0 0 0 0 0 0 0 0 0 
0 0 0 0 0 0 0 0 0 
0 0 0 0 0 0 0 0 0 
0 0 0 0 0 0 0 0 0 
0 0 0 0 0 0 0 0 0 
0 0 0 0 0 0 0 0 0 
0 0 0 0 0 0 0 0 0 
0 0 0 0 0 0 0 0 0 
0 0 0 0 0 0 0 0 0 
0 0 0 0 0 0 0 0 0 
0 0 0 0 0 0 0 0 0 
0 0 0 0 0 0 0 0 0 