# vtk DataFile Version 5.1
vtk output
ASCII
DATASET STRUCTURED_POINTS
DIMENSIONS 250 250 1
SPACING 1 1 1
ORIGIN 0 0 0
POINT_DATA 62500
FIELD FieldData 6
feature_1 1 62500 float
0 0 0 0 0 0 0 0 0 
0 0 0 0 0 0 0 0 0 
0 0 0 0 0 0 0 0 0 
0 0 0 0 0 0 0 0 0 
0 0 0 0 0 0 0 0 0 
0 0 0 0 0 0 0 0 0 
0 0 0 0 0 0 0 0 0 
0 0 0 0 0 0 0 0 0 
0 0 0 0 0 0 0 0 0 
0 0 0 0 0 0 0 0 0 
0 0 0 0 0 0 0 0 0 
0 0 0 0 0 0 0 0 0 
0 0 0 0 0 0 0 0 0 
0 0 0 0 0 0 0 0 0 
0 0 0 0 0 0 0 0 0 
0 0 0 0 0 0 0 0 0 
0 0 0 0 0 0 0 0 0 
0 0 0 0 0 0 0 0 0 
0 0 0 0 0 0 0 0 0 
0 0 0 0 0 0 0 0 0 
0 0 0 0 0 0 0 0 0 
0 0 0 0 0 0 0 0 0 
0 0 0 0 0 0 0 0 0 
0 0 0 1.98813e-12 0 0 0 0 0 
0 0 0 0 0 0 0 0 0 
0 0 0 0 0 0 0 0 0 
0 0 0 0 0 0 0 0 0 
0 0 0 0 0 0 0 0 0 
0 0 0 0 0 0 0 0 0 
0 0 0 0 0 0 0 0 0 
0 0 0 0 0 0 0 0 0 
0 0 0 0 0 0 0 0 0 
0 0 0 0 0 0 0 0 0 
0 0 0 0 0 0 0 0 0 
0 0 0 0 0 0 0 0 0 
0 0 0 0 0 0 0 0 0 
0 0 0 0 0 0 0 0 0 
0 0 0 0 0 0 0 0 0 
0 0 0 0 0 0 0 0 0 
0 0 0 0 0 0 0 0 0 
0 0 0 0 0 0 0 0 0 
0 0 0 0 0 0 0 0 0 
0 0 0 0 0 0 0 0 0 
0 0 0 0 0 0 0 0 0 
0 0 0 0 0 0 0 0 0 
0 0 0 0 0 0 0 0 0 
0 0 0 0 0 0 0 0 0 
0 0 0 0 0 0 0 0 0 
0 0 0 0 0 0 0 0 0 
0 0 0 0 0 0 0 0 0 
0 0 0 0 0 0 0 0 0 
0 2.78379e-13 0 0 0 0 0 0 0 
0 0 0 0 0 0 0 0 0 
0 0 0 0 0 0 0 0 0 
0 0 0 0 0 0 0 0 0 
0 0 0 0 0 0 0 0 0 
0 0 0 0 0 0 0 0 0 
0 0 0 0 0 0 0 0 0 
0 0 0 0 0 0 0 0 0 
0 0 0 0 0 0 0 0 0 
0 0 0 0 0 0 0 0 0 
0 0 0 0 0 0 0 0 0 
0 0 0 0 0 0 0 0 0 
0 0 0 0 0 0 0 0 0 
0 0 0 0 0 0 0 0 0 
0 0 0 0 0 0 0 0 0 
0 0 0 0 0 0 0 0 0 
0 0 0 0 0 0 0 0 0 
0 0 0 0 0 0 0 0 0 
0 0 0 0 0 0 0 0 0 
0 0 0 0 0 0 0 0 0 
0 0 0 0 0 0 0 0 0 
0 0 0 0 0 0 0 0 0 
0 0 0 0 0 0 0 0 0 
0 0 0 0 0 0 0 0 0 
0 0 0 0 0 0 0 0 0 
0 0 0 0 0 0 0 0 0 
0 0 0 0 0 0 0 0 0 
0 0 0 0 0 0 0 0 0 
0 0 0 0 0 0 0 0 0 
0 0 0 0 0 0 0 0 0 
0 0 0 0 0 0 0 0 0 
0 0 0 0 0 0 0 0 0 
0 0 0 0 0 0 0 0 0 
0 0 0 0 0 0 0 0 0 
0 0 0 0 0 0 0 0 0 
0 0 0 0 0 0 0 0 0 
0 0 0 0 0 0 0 0 0 
0 0 0 0 0 0 0 0 0 
0 0 0 0 0 0 0 0 0 
0 0 0 0 0 0 0 0 0 
0 0 0 0 0 0 0 0 0 
0 0 0 0 0 0 0 0 0 
0 0 0 0 0 0 0 0 0 
0 0 0 0 0 0 0 0 0 
0 0 0 0 0 0 0 0 0 
0 0 0 0 0 0 0 0 0 
0 0 0 0 0 0 0 0 0 
0 0 0 0 0 0 0 0 0 
0 0 0 0 0 0 0 0 0 
0 0 0 0 0 0 0 0 0 
0 0 0 0 0 0 0 0 0 
0 0 0 0 0 0 0 0 0 
0 0 0 0 0 0 0 0 0 
0 0 0 0 0 0 0 0 0 
0 0 0 0 0 0 0 0 0 
0 0 0 0 0 0 0 0 0 
0 0 0 0 0 0 0 0 0 
0 0 0 0 0 0 0 0 0 
0 0 0 0 0 0 0 0 0 
0 0 0 0 0 0 0 0 0 
0 0 0 0 0 0 0 0 0 
0 0 0 0 0 0 0 0 0 
0 0 0 0 0 0 0 0 0 
0 0 0 0 0 0 0 0 0 
0 0 0 0 0 0 0 0 0 
0 0 0 0 0 0 0 0 0 
0 0 0 0 0 0 0 0 0 
0 0 0 0 0 0 0 0 0 
0 6.15118e-13 0 0 0 0 0 0 0 
0 0 0 0 0 0 0 0 0 
0 0 0 0 0 0 0 0 0 
0 0 0 0 0 0 0 0 0 
0 0 0 0 0 0 0 0 0 
0 0 0 0 0 0 0 0 0 
0 0 0 0 0 0 0 0 0 
0 0 0 0 0 0 0 0 0 
0 0 0 0 0 0 0 0 0 
0 0 0 0 0 0 0 0 0 
0 0 0 0 0 0 0 0 0 
0 0 0 0 0 0 0 0 0 
0 0 0 0 0 0 0 0 0 
0 0 0 0 0 0 0 0 0 
0 0 0 0 0 0 0 0 0 
0 0 0 0 0 0 0 0 0 
0 0 0 0 0 0 0 0 0 
0 0 0 0 0 0 0 0 0 
0 0 0 0 0 0 0 0 0 
0 0 0 0 0 0 0 0 0 
0 0 0 0 0 0 0 0 0 
0 0 0 0 0 0 0 0 0 
0 0 0 0 0 0 0 0 0 
0 0 0 0 0 0 0 0 0 
0 0 0 0 0 0 0 0 0 
0 0 0 0 0 0 0 0 0 
0 0 0 0 0 0 0 0 0 
0 0 0 0 0 0 0 0 0 
0 0 0 0 0 0 0 0 0 
0 0 0 0 0 0 0 0 0 
0 0 0 0 0 0 0 0 0 
0 0 0 0 0 0 0 0 0 
0 0 0 0 0 0 0 0 0 
0 0 0 0 0 0 0 0 0 
0 0 0 0 0 0 0 0 0 
0 0 0 0 0 0 0 0 0 
0 0 0 0 0 0 0 0 0 
0 0 0 0 0 0 0 0 0 
0 0 0 0 0 0 0 0 0 
0 0 0 0 0 0 0 0 0 
0 0 0 0 0 0 0 0 0 
0 0 0 0 0 0 0 0 0 
0 0 0 0 0 0 0 0 0 
0 0 0 0 0 0 0 0 0 
0 0 0 0 0 0 0 0 0 
0 0 0 0 0 0 0 0 0 
0 0 0 0 0 0 0 0 0 
0 0 0 0 0 0 0 0 0 
0 0 0 0 0 0 0 0 0 
0 0 0 0 0 0 0 0 0 
0 0 0 0 0 0 0 0 0 
0 0 0 0 0 0 0 0 0 
0 0 0 0 0 0 0 0 0 
0 0 0 0 0 0 0 0 0 
0 0 0 0 0 0 0 0 0 
0 0 0 0 0 0 0 0 0 
0 0 0 0 0 0 0 0 0 
0 0 0 0 0 0 0 0 0 
0 0 0 0 0 0 0 0 0 
0 0 0 0 0 0 0 0 0 
0 0 0 0 0 0 0 0 0 
0 0 0 0 0 0 0 0 0 
0 0 0 0 0 0 0 0 0 
0 0 0 0 0 0 0 0 0 
0 0 0 0 0 0 0 0 0 
0 0 0 0 0 0 0 0 0 
0 0 0 0 0 0 0 0 0 
0 0 0 0 0 0 0 0 0 
0 0 0 0 0 0 0 0 0 
0 0 0 0 0 0 0 0 0 
0 0 0 0 0 0 0 0 0 
0 0 0 0 0 0 0 0 0 
0 0 0 0 0 0 0 0 0 
0 0 0 0 0 0 0 0 0 
0 0 0 0 0 0 0 0 0 
0 0 0 0 0 0 0 0 0 
0 0 0 0 0 0 0 0 0 
0 0 0 0 0 0 0 0 0 
0 0 0 0 0 0 0 0 0 
0 0 0 0 0 0 0 0 0 
0 0 0 0 0 0 0 0 0 
0 0 0 0 0 0 0 0 0 
0 0 0 0 0 0 0 0 0 
0 0 0 0 0 0 0 0 0 
0 0 0 0 0 0 0 0 0 
0 0 0 0 0 0 0 0 0 
0 0 0 0 0 0 0 0 0 
0 0 0 0 0 0 0 0 0 
0 0 0 0 0 0 0 0 0 
0 0 0 0 0 0 0 0 0 
0 0 0 0 0 0 0 0 0 
0 0 0 0 0 0 0 0 0 
0 0 0 0 0 0 0 0 0 
0 0 0 0 0 0 0 0 0 
0 0 0 0 0 0 0 0 0 
0 0 0 0 0 0 0 0 0 
0 0 0 0 0 0 0 0 0 
0 0 0 0 0 0 0 0 0 
0 0 0 0 0 0 0 0 0 
0 0 0 0 0 0 0 0 0 
0 0 0 0 0 0 0 0 0 
0 0 0 0 0 0 0 0 0 
0 0 0 0 0 0 0 0 0 
0 0 0 0 0 0 0 0 0 
0 0 0 0 0 0 0 0 0 
0 0 0 0 0 0 0 0 0 
0 0 0 0 0 0 0 0 0 
0 0 0 0 0 0 0 0 0 
0 0 0 0 0 0 0 0 0 
0 0 0 0 0 0 0 0 0 
0 0 0 0 0 0 0 0 0 
0 0 0 0 0 0 0 0 0 
0 0 0 0 0 0 0 0 0 
0 0 0 0 0 0 0 0 0 
0 0 0 0 0 0 0 0 0 
0 0 0 0 0 0 0 0 0 
0 0 0 0 0 0 0 0 0 
0 0 0 0 0 0 0 0 0 
0 0 0 0 0 0 0 0 0 
0 0 0 0 0 0 0 0 0 
0 0 0 0 0 0 0 0 0 
0 0 0 0 0 0 0 0 0 
0 0 0 0 0 0 0 0 0 
0 0 0 0 0 0 0 0 0 
0 0 0 0 0 0 0 0 0 
0 0 0 0 0 0 0 0 0 
0 0 0 0 0 0 0 0 0 
0 0 0 0 0 0 0 0 0 
0 0 0 0 0 0 0 0 0 
0 0 0 0 0 0 0 0 0 
0 0 0 0 0 0 0 0 0 
0 0 0 0 0 0 0 0 0 
0 0 0 0 0 0 0 0 0 
0 0 0 0 0 0 0 0 0 
0 0 0 0 0 0 0 0 0 
0 0 0 0 0 0 0 0 0 
0 0 0 0 0 0 0 0 0 
0 0 0 0 0 0 0 0 0 
0 0 0 0 0 0 0 0 0 
0 0 0 0 0 0 0 0 0 
0 0 0 0 0 0 0 0 0 
0 0 0 0 0 0 0 0 0 
0 0 0 0 0 0 0 0 0 
0 0 0 0 0 0 0 0 0 
0 0 0 0 0 0 0 0 0 
0 0 0 0 0 0 0 0 0 
0 0 0 0 0 0 0 0 0 
0 0 0 0 0 0 0 0 0 
0 0 0 0 0 0 0 0 0 
0 0 0 0 0 0 0 0 0 
0 0 0 0 0 0 0 0 0 
0 0 0 0 0 0 0 0 0 
0 0 0 0 0 0 0 0 0 
0 0 0 0 0 0 0 0 0 
0 0 0 0 0 0 0 0 0 
0 0 0 0 0 0 0 0 0 
0 0 0 0 0 0 0 0 0 
0 0 0 0 0 0 0 0 0 
0 0 0 0 0 0 0 0 0 
0 0 0 0 0 0 0 0 0 
0 0 0 0 0 0 0 0 0 
0 0 0 0 0 0 0 0 0 
0 0 0 0 0 0 0 0 0 
0 0 0 0 0 0 0 0 0 
0 0 0 0 0 0 0 0 0 
0 0 0 0 0 0 0 0 0 
0 0 0 0 0 0 0 0 0 
0 0 0 0 0 0 0 0 0 
0 0 0 0 0 0 0 0 0 
0 0 0 0 0 0 0 0 0 
0 0 0 0 0 0 0 0 0 
0 0 0 0 0 0 0 0 0 
0 0 0 0 0 0 0 0 0 
0 0 0 0 0 0 0 0 0 
0 0 0 0 0 0 0 0 0 
0 0 0 0 0 0 0 0 0 
0 0 0 0 0 0 0 0 0 
0 0 0 0 0 0 0 0 0 
0 0 0 0 0 0 0 0 0 
0 0 0 0 0 0 0 0 0 
0 0 0 0 0 0 0 0 0 
0 0 0 0 0 0 0 0 0 
0 0 0 0 0 0 0 0 0 
0 0 0 0 0 0 0 0 0 
0 0 0 0 0 0 0 0 0 
0 0 0 0 0 0 0 0 0 
0 0 0 0 0 0 0 0 0 
0 0 0 0 0 0 0 0 0 
0 0 0 0 0 0 0 0 0 
0 0 0 0 0 0 0 0 0 
0 0 0 0 0 0 0 0 0 
0 0 0 0 0 0 0 0 0 
0 0 0 0 0 0 0 0 0 
0 0 0 0 0 0 0 0 0 
0 0 0 0 0 0 0 0 0 
0 0 0 0 0 0 0 0 0 
0 0 0 0 0 0 0 0 0 
0 0 0 0 0 0 0 0 0 
0 0 0 0 0 0 0 0 0 
0 0 0 0 0 0 0 0 0 
0 0 0 0 0 0 0 0 0 
0 0 0 0 0 0 0 0 0 
0 0 0 0 0 0 0 0 0 
0 0 0 0 0 0 0 0 0 
0 0 0 0 0 0 0 0 0 
0 0 0 0 0 0 0 0 0 
0 0 0 0 0 0 0 0 0 
0 0 0 0 0 0 0 0 0 
0 0 0 0 0 0 0 0 0 
0 0 0 0 0 0 0 0 0 
0 0 0 0 0 0 0 0 0 
0 0 0 0 0 0 0 0 0 
0 0 0 0 0 0 0 0 0 
0 0 0 0 0 0 0 0 0 
0 0 0 0 0 0 0 0 0 
0 0 0 0 0 0 0 0 0 
0 0 0 0 0 0 0 0 0 
0 0 0 0 0 0 0 0 0 
0 0 0 0 0 0 0 0 0 
0 0 0 0 0 0 0 0 0 
0 0 0 0 0 0 0 0 0 
0 0 0 0 0 0 0 0 0 
0 0 0 0 0 0 0 0 0 
0 0 0 0 0 0 0 0 0 
0 0 0 0 0 0 0 0 0 
0 0 0 0 0 0 0 0 0 
0 0 0 0 0 0 0 0 0 
0 0 0 0 0 0 0 0 0 
0 0 0 0 0 0 0 0 0 
0 0 0 0 0 0 0 0 0 
0 0 0 0 0 0 0 0 0 
0 0 0 0 0 0 0 0 0 
0 0 0 0 0 0 0 0 0 
0 0 0 0 0 0 0 0 0 
0 0 0 0 0 0 0 0 0 
0 0 0 0 0 0 0 0 0 
0 0 0 0 0 0 0 0 0 
0 0 0 0 0 0 0 0 0 
0 0 0 0 0 0 0 0 0 
0 0 0 0 0 0 0 0 0 
0 0 0 0 0 0 0 0 0 
0 0 0 0 0 0 0 0 0 
0 0 0 0 0 0 0 0 0 
0 0 0 0 0 0 0 0 0 
0 0 0 0 0 0 0 0 0 
0 0 0 0 0 0 0 0 0 
0 0 0 0 0 0 0 0 0 
0 0 0 0 0 0 0 0 0 
0 0 0 0 0 0 0 0 0 
0 0 0 0 0 0 0 0 0 
0 0 0 0 0 0 0 0 0 
0 0 0 0 0 0 0 0 0 
0 0 0 0 0 0 0 0 0 
0 0 0 0 0 0 0 0 0 
0 0 0 0 0 0 0 0 0 
0 0 0 0 0 0 0 0 0 
0 0 0 0 0 0 0 0 0 
0 0 0 0 0 0 0 0 0 
0 0 0 0 0 0 0 0 0 
0 0 0 0 0 0 0 0 0 
0 0 0 0 0 0 0 0 0 
0 0 0 0 0 0 0 0 0 
0 0 0 0 0 0 0 0 0 
0 0 0 0 0 0 0 0 0 
0 0 0 0 0 0 0 0 0 
0 0 0 0 0 0 0 0 0 
0 0 0 0 0 0 0 0 0 
0 0 0 0 0 0 0 0 0 
0 0 0 0 0 0 0 0 0 
0 0 0 0 0 0 0 0 0 
0 0 0 0 0 0 0 0 0 
0 0 0 0 0 0 0 0 0 
0 0 0 0 0 0 0 0 0 
0 0 0 0 0 0 0 0 0 
0 0 0 0 0 0 0 0 0 
0 0 0 0 0 0 0 0 0 
0 0 0 0 0 0 0 0 0 
0 0 0 0 0 0 0 0 0 
0 0 0 0 0 0 0 0 0 
0 0 0 0 0 0 0 0 0 
0 0 0 0 0 0 0 0 0 
0 0 0 0 0 0 0 0 0 
0 0 0 0 0 0 0 0 0 
0 0 0 0 0 0 0 0 0 
0 0 0 0 0 0 0 0 0 
0 0 0 0 0 0 0 0 0 
0 0 0 0 0 0 0 0 0 
0 0 0 0 0 0 0 0 0 
0 0 0 0 0 0 0 0 0 
0 0 0 0 0 0 0 0 0 
0 0 0 0 0 0 0 0 0 
0 0 0 0 0 0 0 0 0 
0 0 0 0 0 0 0 0 0 
0 0 0 0 0 0 0 0 0 
0 0 0 0 0 0 0 0 0 
0 0 0 0 0 0 0 0 0 
0 0 0 0 0 0 0 0 0 
0 0 0 0 0 0 0 0 0 
0 0 0 0 0 0 0 0 0 
0 0 0 0 0 0 0 0 0 
0 0 0 0 0 0 0 0 0 
0 0 0 0 0 0 0 0 0 
0 0 0 0 0 0 0 0 0 
0 0 0 0 0 0 0 0 0 
0 0 0 0 0 0 0 0 0 
0 0 0 0 0 0 0 0 0 
0 0 0 0 0 0 0 0 0 
0 0 0 0 0 0 0 0 0 
0 0 0 0 0 0 0 0 0 
0 0 0 0 0 0 0 0 0 
0 0 0 0 0 0 0 0 0 
0 0 0 0 0 0 0 0 0 
0 0 0 0 0 0 0 0 0 
0 0 0 0 0 0 0 0 0 
0 0 0 0 0 0 0 0 0 
0 0 0 0 0 0 0 0 0 
0 0 0 0 0 0 0 0 0 
0 0 0 0 0 0 0 0 0 
0 0 0 0 0 0 0 0 0 
0 0 0 0 0 0 0 0 0 
0 0 0 0 0 0 0 0 0 
0 0 0 0 0 0 0 0 0 
0 0 0 0 0 0 0 0 0 
0 0 0 0 0 0 0 0 0 
0 0 0 0 0 0 0 0 0 
0 0 0 0 0 0 0 0 0 
0 0 0 0 0 0 0 0 0 
0 0 0 0 0 0 0 0 0 
0 0 0 1.34004e-12 0 0 0 0 0 
0 0 0 0 0 0 0 0 0 
0 0 0 0 0 0 0 0 0 
0 0 0 0 0 0 0 0 0 
0 0 0 0 0 0 0 0 0 
0 0 0 0 0 0 0 0 0 
0 0 0 0 0 0 0 0 0 
0 0 0 0 0 0 0 0 0 
0 0 0 0 0 0 0 0 0 
0 0 0 0 0 0 0 0 0 
0 0 0 0 0 0 0 0 0 
0 0 0 0 0 0 0 0 0 
0 0 0 0 0 0 0 0 0 
0 0 0 0 2.34307e-12 0 0 0 0 
0 0 0 0 0 0 0 0 0 
0 0 0 0 0 0 0 0 0 
0 0 0 0 0 0 0 0 0 
0 0 0 0 0 0 0 0 0 
0 0 0 0 0 0 0 0 0 
0 0 0 0 0 0 0 0 0 
0 0 0 0 0 0 0 0 0 
0 0 0 0 0 0 0 0 0 
0 0 0 0 0 0 0 0 0 
0 0 0 0 0 0 0 0 0 
0 0 0 0 0 0 0 0 0 
0 0 0 0 0 0 0 0 0 
0 0 0 0 0 0 0 0 0 
0 0 0 0 0 0 0 0 0 
0 0 0 0 0 0 0 0 0 
0 0 0 0 0 0 0 0 0 
0 0 0 0 0 0 0 0 0 
0 0 0 0 0 0 0 0 0 
0 0 5.44041e-13 0 0 0 0 0 0 
0 3.19546e-12 0 0 0 0 0 0 0 
0 0 0 0 0 0 0 0 0 
0 0 0 0 0 0 0 0 0 
0 0 0 0 0 0 0 0 0 
0 0 0 0 0 0 0 0 0 
0 0 0 0 0 0 0 0 0 
0 0 0 0 0 0 0 0 0 
0 0 0 0 0 0 0 0 0 
0 0 0 0 0 0 0 0 0 
0 0 0 2.52466e-12 0 0 0 0 0 
0 0 0 0 0 0 0 0 0 
0 0 0 0 0 0 0 0 0 
0 0 0 0 0 0 0 0 0 
0 0 0 0 0 0 0 0 0 
0 0 0 0 0 0 0 0 0 
0 0 0 0 0 0 0 0 0 
0 0 0 0 0 0 0 0 0 
0 0 0 0 0 0 0 0 0 
0 0 0 0 0 0 0 0 0 
0 0 0 0 0 0 0 0 0 
0 0 0 0 0 0 0 0 0 
0 0 0 0 0 0 0 0 0 
0 0 0 0 0 0 0 0 0 
0 0 0 0 0 0 0 0 5.59761e-13 
0 0 0 0 0 0 0 0 0 
0 0 0 0 0 0 0 0 0 
0 0 0 0 0 0 0 0 0 
0 0 0 0 0 0 0 0 8.21439e-12 
0 0 0 0 0 0 0 0 0 
0 0 0 0 0 0 0 0 0 
0 0 0 5.0349e-12 0 0 0 0 0 
0 0 0 0 0 0 0 0 0 
0 0 0 8.18867e-12 0 0 0 0 0 
0 0 0 0 0 0 0 0 0 
0 0 0 0 0 0 0 0 0 
0 0 5.48401e-12 0 0 0 0 0 0 
0 0 0 0 0 0 0 0 0 
0 0 0 0 0 0 0 0 0 
0 0 0 0 0 0 0 0 0 
0 0 0 0 0 0 0 0 0 
0 0 0 0 0 0 0 0 0 
0 0 0 0 0 0 0 0 0 
0 0 0 0 0 0 0 0 0 
0 0 0 0 0 0 0 0 0 
0 0 0 0 0 0 0 0 0 
0 0 0 0 0 0 0 0 0 
0 0 0 0 0 0 0 0 0 
0 0 0 0 0 0 0 0 0 
0 0 0 0 0 0 0 0 0 
0 0 0 0 0 0 0 0 0 
0 0 0 0 0 0 0 0 0 
0 0 0 0 0 0 0 0 0 
0 0 0 0 0 0 0 0 0 
0 0 0 0 0 0 0 0 0 
0 0 0 0 0 3.76369e-12 0 0 0 
0 0 0 0 0 0 0 0 0 
0 0 0 0 0 0 0 0 0 
0 0 0 0 0 0 0 0 2.21976e-12 
0 0 0 0 0 0 0 0 0 
0 0 0 0 0 0 0 0 0 
0 0 0 0 0 0 0 4.35872e-12 0 
0 0 0 0 0 0 0 0 0 
0 0 0 0 0 0 0 0 0 
0 0 0 0 0 0 0 0 0 
0 0 0 0 0 2.00639e-12 0 0 0 
0 0 0 0 0 0 0 0 0 
0 0 0 0 0 0 0 0 0 
0 0 0 0 0 0 0 0 0 
0 0 0 0 0 0 0 0 0 
0 0 0 0 0 0 0 0 0 
0 0 0 0 0 0 0 0 0 
0 0 0 0 0 0 0 0 0 
0 0 0 0 0 0 0 0 0 
0 0 0 0 0 0 0 0 0 
0 0 0 0 0 0 0 0 0 
0 0 0 0 0 0 0 0 0 
0 0 0 0 0 0 0 0 0 
0 0 0 0 0 0 0 0 0 
0 0 0 0 0 0 0 0 0 
0 0 0 0 0 0 0 0 0 
0 0 0 0 0 0 0 0 0 
0 0 0 0 0 0 0 0 0 
0 0 0 0 0 0 0 0 0 
1.70828e-11 0 0 0 2.64761e-11 1.1731e-11 0 0 0 
0 0 0 0 0 0 0 0 0 
0 1.92077e-11 0 0 0 0 0 0 2.13659e-11 
0 0 0 0 0 0 0 0 0 
0 0 0 0 0 0 0 0 0 
0 0 0 0 0 0 0 0 0 
0 0 0 0 0 0 0 0 0 
0 0 0 0 0 0 0 0 0 
0 0 0 0 0 0 0 0 0 
0 0 0 0 0 0 0 0 0 
0 0 0 0 0 0 0 0 0 
0 0 0 0 0 0 0 0 0 
0 0 0 0 0 0 0 0 0 
0 0 0 0 0 0 0 0 0 
0 0 0 0 0 0 0 0 0 
0 2.19856e-12 0 0 0 0 0 0 0 
0 0 0 0 0 0 0 0 0 
0 0 0 0 0 0 0 0 0 
0 0 0 0 0 0 0 0 0 
0 0 0 0 0 0 0 0 0 
0 0 0 0 0 0 0 0 0 
0 0 0 0 0 0 0 0 0 
0 0 0 0 0 0 0 0 0 
0 0 0 0 0 2.04826e-12 0 0 0 
0 0 0 0 0 0 0 0 0 
0 0 0 0 0 0 0 0 0 
0 0 9.33e-12 0 0 0 0 0 0 
0 0 0 0 0 1.356e-11 1.45835e-11 0 0 
0 0 0 0 0 0 0 0 0 
0 0 0 0 0 0 0 0 0 
0 0 0 0 0 0 0 0 0 
9.53703e-12 0 0 0 0 2.47825e-11 0 0 0 
0 0 0 0 0 1.3969e-11 0 0 0 
0 0 0 0 0 0 0 0 0 
0 0 0 0 0 0 0 0 0 
0 0 0 0 0 0 0 0 0 
0 0 0 0 0 1.00088e-11 0 1.57591e-11 0 
0 0 0 0 0 0 0 0 0 
0 0 0 0 0 0 0 0 0 
0 0 0 0 0 0 0 0 0 
0 0 0 0 0 0 0 0 0 
0 0 0 0 0 0 0 0 0 
0 0 0 0 0 0 0 0 0 
0 0 0 0 0 0 0 4.10443e-13 0 
0 0 0 0 0 0 0 0 0 
0 0 0 0 0 0 0 0 0 
0 0 0 0 0 0 0 0 0 
0 0 0 0 0 0 0 0 0 
0 0 0 0 0 0 0 0 0 
0 0 0 0 0 0 0 0 0 
0 0 0 0 0 0 0 0 0 
0 0 0 0 0 0 0 0 0 
0 0 0 0 0 0 0 0 0 
0 0 0 0 0 0 0 0 0 
0 0 0 0 0 0 0 0 0 
0 0 0 0 0 1.09932e-11 0 2.56103e-11 0 
0 0 0 0 0 0 0 0 0 
0 0 0 0 2.85077e-11 0 3.01341e-11 0 0 
8.51779e-12 0 0 0 0 0 0 0 0 
3.08618e-11 0 0 0 0 0 0 0 0 
0 1.59519e-11 2.40729e-11 0 0 0 0 0 0 
0 0 0 0 0 0 0 0 0 
0 0 0 0 1.97318e-12 0 0 0 0 
0 0 0 0 0 0 6.16231e-12 0 0 
0 0 0 1.6413e-12 0 0 0 0 0 
0 0 0 0 0 0 0 0 0 
0 0 0 0 0 0 0 0 0 
0 0 0 0 0 0 0 0 0 
0 0 0 0 0 0 0 0 0 
0 0 0 0 0 0 0 0 0 
0 0 0 0 0 0 0 0 0 
0 0 5.99491e-12 0 0 0 0 0 0 
0 0 0 0 0 0 0 0 0 
0 0 0 0 0 0 0 0 0 
0 0 0 0 0 0 0 0 0 
0 0 0 0 0 0 0 0 0 
0 0 0 0 0 0 0 0 0 
0 0 0 0 0 0 0 0 0 
0 0 0 0 9.59855e-13 0 0 0 0 
0 0 0 0 0 0 0 0 0 
0 0 0 0 0 0 0 0 0 
0 0 1.27018e-11 1.35907e-11 0 0 0 6.86869e-12 0 
0 0 0 0 0 0 0 0 0 
0 2.30908e-11 0 5.89477e-12 0 0 0 0 0 
0 0 1.18483e-11 0 0 0 0 0 0 
0 0 0 0 0 0 0 0 0 
0 0 0 0 0 0 0 8.98852e-12 0 
0 0 0 0 1.49076e-12 0 0 0 0 
0 3.23799e-11 0 0 0 0 0 0 0 
7.45593e-12 0 0 0 0 0 0 0 0 
0 0 0 0 0 0 0 0 0 
8.54401e-12 0 0 0 0 0 0 7.32724e-12 0 
0 0 0 0 0 0 1.35149e-11 0 0 
0 0 0 0 0 0 0 0 0 
0 0 0 0 0 0 0 0 0 
0 0 0 0 0 0 0 0 0 
0 0 0 0 0 0 0 0 0 
0 0 0 0 0 0 0 0 0 
0 0 0 0 0 0 0 0 7.47355e-12 
0 0 0 1.73289e-11 0 0 0 0 0 
0 0 0 0 0 0 0 0 0 
0 0 0 0 0 0 0 0 0 
0 0 0 0 0 0 0 0 0 
0 0 0 0 0 0 0 0 0 
0 0 0 0 0 0 0 0 0 
0 0 0 0 0 0 0 0 0 
0 0 0 0 0 0 0 0 0 
0 0 0 0 0 0 0 0 0 
0 0 0 0 0 0 0 0 0 
0 0 0 0 0 0 0 0 0 
0 0 1.39663e-11 1.51356e-11 0 2.03849e-11 0 0 0 
3.97942e-11 0 3.77298e-11 0 0 0 0 0 0 
2.51156e-11 0 0 0 0 0 0 0 0 
0 2.768e-11 0 0 0 0 0 5.50301e-11 0 
0 0 0 0 0 0 0 4.13808e-13 0 
0 0 0 0 0 0 0 0 0 
4.0142e-11 0 0 7.62083e-12 0 1.26565e-11 0 0 0 
0 0 0 0 0 0 9.34227e-12 0 0 
0 0 0 0 0 0 0 0 0 
2.89307e-11 0 0 0 0 0 0 0 0 
0 0 0 0 0 0 0 0 0 
0 0 0 1.21771e-11 0 0 1.42357e-11 0 0 
0 0 0 0 0 0 0 0 0 
0 0 0 0 0 0 0 0 0 
0 0 0 0 0 0 0 0 0 
0 0 0 0 0 0 0 0 0 
0 0 0 2.73065e-12 0 0 0 0 0 
0 0 0 0 0 0 0 0 0 
9.8574e-12 0 0 0 0 0 0 0 0 
0 0 0 0 0 0 0 0 0 
0 0 0 0 0 0 0 0 0 
0 0 0 0 0 0 0 0 0 
0 0 0 0 0 0 0 0 0 
0 0 0 0 0 0 0 0 0 
0 0 0 0 0 0 0 0 0 
0 0 0 0 0 0 1.08003e-11 0 0 
2.67486e-11 0 3.41178e-11 0 0 0 0 0 0 
0 0 0 0 0 0 0 0 0 
0 0 0 0 2.27343e-11 0 2.71402e-11 0 0 
2.41352e-11 2.67794e-11 0 0 0 3.63304e-11 0 0 0 
0 0 0 0 0 0 0 0 0 
0 0 0 1.85424e-11 7.39098e-11 0 0 2.93219e-11 0 
4.4946e-11 0 0 0 0 0 0 0 0 
0 3.35227e-11 0 4.93791e-11 0 0 0 0 0 
0 0 0 0 1.49732e-11 0 0 0 1.44977e-11 
0 0 0 0 0 0 0 0 0 
0 0 0 0 0 0 0 0 0 
0 0 0 5.79382e-11 1.98189e-11 0 0 0 0 
0 0 0 0 5.79226e-12 0 0 0 0 
0 4.66029e-12 0 0 0 0 0 0 0 
0 0 1.04844e-11 0 0 0 0 0 0 
0 0 0 0 0 0 0 0 0 
0 0 0 0 0 0 0 0 0 
0 0 0 0 0 0 0 0 0 
0 0 0 0 0 0 0 0 2.95234e-11 
0 0 0 0 0 0 0 0 0 
0 0 0 0 0 0 0 0 0 
0 0 0 0 0 0 0 0 0 
0 0 0 0 0 0 0 0 0 
0 0 0 0 0 0 0 0 0 
0 0 0 0 0 0 0 0 0 
0 0 0 0 0 0 0 0 0 
0 0 0 0 0 0 0 0 0 
0 0 0 0 0 0 0 0 0 
3.16312e-11 0 0 0 5.162e-11 0 0 0 0 
0 0 0 0 0 0 0 0 0 
0 0 1.09678e-11 2.38265e-11 0 0 0 0 0 
0 0 0 0 2.16117e-11 0 0 0 0 
0 0 0 0 0 7.47034e-11 0 0 4.65362e-12 
2.49325e-11 0 6.28459e-11 1.00297e-10 0 0 0 0 0 
0 0 0 0 0 0 0 0 0 
4.63184e-11 4.83912e-11 0 0 6.14876e-11 0 0 0 0 
3.48262e-11 0 0 0 0 0 0 0 0 
0 0 0 0 2.81801e-11 0 0 0 0 
0 8.80283e-12 0 0 0 0 0 0 0 
0 0 0 1.5108e-12 4.80545e-11 0 0 1.09347e-11 0 
1.0679e-11 0 0 1.71866e-11 0 0 0 0 0 
0 0 0 0 0 0 0 0 0 
0 8.97071e-12 6.26898e-12 0 0 0 0 0 0 
0 2.27728e-11 0 0 0 0 0 0 0 
0 0 0 0 0 0 0 0 0 
0 0 0 0 0 0 0 9.36634e-12 0 
0 1.48808e-11 0 0 0 0 0 0 0 
0 0 0 0 7.11849e-12 0 0 0 0 
0 0 0 0 0 0 0 0 0 
0 0 0 0 0 0 0 0 0 
0 0 0 0 0 0 0 0 0 
0 0 0 0 0 0 0 0 0 
0 0 0 0 0 0 0 0 0 
0 0 0 0 0 0 0 0 0 
0 0 0 0 0 1.38852e-11 0 0 0 
0 3.36399e-12 0 0 1.30109e-11 0 0 0 0 
0 0 4.01243e-11 0 0 0 0 4.62608e-11 0 
0 0 0 0 0 1.57987e-11 0 0 0 
0 0 0 0 8.55005e-11 0 2.06184e-10 0 0 
0 0 5.20527e-11 3.58707e-11 2.14075e-11 0 0 3.0959e-11 0 
0 0 0 0 0 7.2978e-12 0 0 7.97039e-11 
0 0 0 0 0 0 7.91592e-11 0 0 
0 0 0 0 7.3242e-11 0 0 5.69367e-11 0 
0 0 0 0 0 2.21807e-11 0 0 0 
3.62496e-11 0 0 0 0 0 2.21109e-11 0 0 
0 0 0 0 0 0 0 0 4.84767e-11 
0 0 0 0 8.60289e-11 0 1.31405e-10 0 0 
0 3.03962e-11 0 0 0 0 3.13356e-11 0 0 
6.04158e-11 0 4.6988e-11 0 0 2.41528e-11 0 0 0 
0 0 0 0 2.03167e-11 0 0 3.46855e-11 0 
0 0 2.17644e-11 2.92224e-11 0 0 0 0 0 
0 0 0 0 0 0 0 0 0 
0 0 0 0 0 0 0 0 0 
0 0 0 0 0 0 0 0 0 
0 0 1.98745e-11 1.63659e-12 0 0 0 3.11974e-11 0 
0 0 0 0 0 0 0 0 0 
0 0 0 0 0 0 0 0 0 
0 0 0 0 0 0 0 0 0 
0 0 0 0 0 0 0 0 0 
0 0 0 0 0 0 0 0 0 
0 0 0 0 0 0 0 0 0 
0 0 0 0 0 0 0 3.5905e-11 0 
0 0 0 0 1.26485e-11 4.44191e-12 0 0 0 
0 0 0 0 0 4.48742e-11 0 0 0 
0 2.43325e-10 0 0 6.77693e-11 0 0 0 0 
1.64101e-12 0 0 1.56811e-11 0 0 0 0 0 
0 0 0 2.02705e-10 2.43291e-08 0 0 0 4.51373e-11 
0 2.85899e-11 0 0 0 0 0 0 0 
0 0 0 0 2.43693e-10 0 0 0 3.7009e-11 
0 1.51787e-11 0 2.33935e-11 0 0 0 0 5.98044e-11 
0 0 4.75011e-12 0 0 0 0 0 0 
0 0 0 0 0 0 0 0 4.0652e-11 
0 0 1.93862e-11 0 1.25484e-11 0 0 0 0 
0 0 4.79852e-11 0 0 0 0 0 0 
0 0 6.2452e-11 6.99542e-11 0 0 0 0 0 
1.24586e-10 1.49808e-11 0 0 0 9.4033e-11 5.23483e-11 0 0 
0 0 0 0 0 0 0 0 0 
0 1.86943e-11 0 0 0 0 0 0 0 
2.04448e-11 0 0 0 0 2.34754e-11 0 0 0 
0 0 0 0 0 0 0 0 0 
0 0 0 9.09408e-13 0 0 0 1.04784e-11 0 
0 0 1.98448e-11 0 0 2.9011e-11 0 0 0 
0 0 0 6.70314e-11 0 3.56226e-11 0 0 0 
0 0 0 0 0 0 6.54842e-13 0 0 
0 0 0 0 0 0 0 0 0 
0 0 0 0 0 0 0 0 0 
0 0 0 0 0 0 0 0 0 
0 0 0 0 0 0 0 0 0 
0 0 0 0 0 0 0 0 0 
0 0 0 0 1.72398e-11 1.51119e-11 0 0 5.71963e-11 
0 0 0 4.35578e-11 3.7437e-12 2.69423e-11 0 0 0 
0 0 0 0 0 0 0 0 0 
0 3.33573e-11 0 0 0 2.30496e-11 7.25557e-11 0 6.21114e-12 
0 1.47407e-11 0 0 3.11678e-12 1.96341e-11 4.70975e-11 0 0 
0 0 0 1.85157e-10 0 0 4.62351e-11 0 2.00698e-11 
0 0 0 0 0 0 0 1.86543e-11 5.35523e-11 
2.86577e-11 1.3588e-10 2.54854e-08 0 0 0 0 0 0 
2.31082e-11 0 0 0 2.64886e-08 0 0 1.29609e-10 0 
0 1.92987e-12 5.79004e-11 0 2.54346e-11 1.02812e-10 1.35973e-10 0 0 
0 0 0 4.89702e-11 3.08038e-11 1.3444e-11 0 0 0 
0 0 0 2.01966e-11 0 0 0 0 0 
6.7904e-12 0 1.12005e-10 5.91701e-11 0 0 0 0 0 
0 0 0 2.52201e-08 0 0 0 2.37347e-11 0 
8.79324e-11 0 0 1.82279e-10 5.6652e-11 0 0 6.38177e-11 7.69693e-11 
0 0 3.16748e-11 0 0 3.72916e-11 0 0 0 
0 4.46477e-11 0 0 2.242e-11 0 0 0 0 
0 0 0 0 0 0 0 2.96503e-11 0 
0 0 0 0 0 0 0 0 0 
0 0 0 0 0 0 7.13716e-12 0 0 
0 0 0 0 0 0 0 0 2.1311e-12 
0 0 0 0 0 0 0 0 0 
0 0 1.08924e-11 0 0 0 0 0 0 
0 0 0 0 0 0 0 0 0 
0 0 0 0 0 0 0 0 0 
0 0 0 0 0 0 0 0 0 
0 0 0 0 0 0 0 0 0 
0 0 0 0 0 0 0 0 0 
1.5351e-11 0 0 0 0 7.5937e-11 8.17192e-11 0 0 
0 2.33297e-11 0 0 0 0 0 0 0 
0 0 0 0 0 1.19298e-11 0 0 0 
0 0 0 0 0 0 4.0675e-11 0 0 
0 0 0 0 9.48705e-12 0 7.98307e-11 8.44675e-11 0 
0 0 9.99953e-11 7.77929e-11 3.64529e-12 0 0 0 0 
0 0 0 0 1.12748e-13 4.23849e-11 0 0 0 
1.30458e-10 0 0 0 1.41494e-10 0 0 0 0 
2.68327e-11 0 1.7466e-10 0 0 0 0 0 5.51593e-11 
2.68659e-11 0 7.52687e-11 2.1642e-11 0 0 2.46597e-08 0 0 
3.28102e-11 0 0 0 0 1.16052e-11 0 0 0 
0 0 5.01236e-11 0 0 8.75157e-11 6.59077e-11 0 0 
1.02891e-10 7.37257e-11 2.60315e-11 0 7.12856e-11 0 0 0 1.38667e-10 
0 0 0 3.07966e-11 0 1.759e-10 0 0 0 
1.065e-10 0 0 0 5.27477e-11 6.21128e-11 0 9.63689e-12 0 
0 0 1.24316e-11 2.46708e-11 0 0 0 0 0 
0 0 0 0 0 2.4987e-11 0 8.2002e-11 0 
0 0 5.52019e-11 0 7.76704e-11 0 0 0 0 
0 0 0 0 0 0 0 0 0 
0 1.07274e-11 0 0 0 0 0 0 0 
0 0 1.79176e-11 9.58746e-11 1.59579e-11 0 0 0 0 
0 5.41993e-11 0 3.31253e-11 2.96265e-11 0 0 0 1.40546e-11 
0 1.63395e-11 0 0 0 0 0 0 0 
0 0 0 0 0 0 0 0 0 
0 0 0 0 0 0 0 0 0 
0 0 0 0 0 0 0 0 0 
0 0 0 0 0 0 0 0 0 
0 0 0 0 0 0 0 0 0 
0 6.45443e-12 0 5.44552e-11 0 0 0 0 0 
0 0 0 4.3007e-11 4.88871e-11 0 0 0 0 
0 2.63483e-08 0 2.39624e-10 0 0 9.90549e-12 0 0 
0 1.22872e-10 7.36082e-12 0 0 0 0 0 4.60358e-11 
3.03319e-11 0 0 0 0 2.72277e-11 6.76063e-11 0 0 
0 0 0 0 7.31537e-12 0 0 0 0 
0 0 0 0 0 0 5.07336e-11 0 0 
0 0 8.95426e-11 0 3.11663e-11 0 0 0 0 
0 0 0 0 0 0 5.31264e-11 1.04712e-11 0 
0 1.24767e-10 0 0 0 0 3.6043e-10 0 0 
0 0 0 0 0 0 0 1.43458e-11 0 
0 0 0 0 0 2.1852e-10 0 0 5.37686e-11 
0 0 0 3.73894e-11 5.04696e-11 2.78908e-11 0 0 0 
1.25541e-10 0 0 0 0 2.9044e-10 2.73356e-08 2.57412e-10 0 
0 0 1.21311e-10 0 0 9.40477e-11 0 0 0 
5.50513e-12 0 0 0 0 7.63669e-12 0 0 0 
0 5.51088e-11 1.21659e-10 0 0 0 0 4.30416e-11 6.25534e-11 
0 0 0 0 0 0 0 8.96849e-12 0 
0 0 0 0 7.94343e-12 0 0 0 0 
0 0 0 0 3.42817e-11 0 0 0 0 
0 0 6.86688e-11 0 0 2.38419e-10 0 0 0 
0 0 0 5.38089e-11 0 0 0 0 0 
0 0 6.46162e-12 0 0 4.59661e-12 0 0 0 
0 0 0 0 0 0 0 0 0 
0 0 0 0 0 0 0 0 0 
0 0 0 0 0 0 0 0 0 
0 0 0 0 1.16466e-12 0 0 0 0 
0 0 7.02674e-12 0 0 0 0 4.28205e-11 0 
0 6.85677e-11 0 0 2.4735e-08 0 3.8286e-11 0 0 
3.84705e-11 0 3.31564e-11 0 0 0 0 0 0 
3.53412e-10 0 0 0 0 2.10387e-11 1.36694e-10 0 0 
1.54893e-10 0 0 0 8.71149e-11 8.11468e-12 0 0 0 
0 0 4.34437e-11 1.60336e-11 0 0 3.60663e-11 0 0 
0 0 0 1.70645e-11 0 2.32124e-11 0 2.29723e-11 0 
0 0 0 0 0 2.44742e-10 2.05711e-10 0 0 
0 3.02654e-11 6.6521e-11 9.63726e-11 0 0 1.62584e-10 0 0 
3.82893e-11 0 0 0 0 0 1.01633e-10 9.83744e-11 0 
1.38977e-10 0 1.53866e-10 0 0 1.03535e-10 0 6.05475e-11 0 
0 0 1.45175e-11 0 0 0 0 0 0 
4.10594e-11 0 0 2.44706e-08 1.58148e-10 0 1.0668e-10 0 0 
0 0 0 0 0 1.02587e-10 0 0 1.46665e-10 
4.18778e-13 7.42358e-12 0 0 0 1.84139e-10 0 0 1.96621e-10 
0 0 0 0 0 0 1.63586e-10 0 3.60579e-11 
0 0 0 0 0 0 0 0 1.18932e-10 
0 0 0 6.62675e-11 1.55736e-10 0 0 0 0 
0 0 0 0 0 0 0 8.24148e-12 0 
0 0 0 0 0 0 0 0 5.71687e-12 
0 0 0 0 0 0 1.19538e-10 0 8.2028e-11 
0 0 0 2.49508e-08 0 0 0 0 6.84605e-11 
0 0 3.63295e-11 0 1.98061e-11 0 8.25611e-12 0 0 
0 1.00728e-11 0 0 0 0 0 0 0 
0 0 0 0 0 0 0 0 0 
0 0 0 0 0 0 0 0 0 
0 0 0 0 0 0 0 0 0 
0 0 0 0 0 0 0 0 0 
0 0 0 0 0 0 0 0 5.53967e-12 
0 1.81084e-10 8.13304e-11 1.22792e-10 3.47895e-11 0 0 0 0 
0 0 0 0 0 0 0 0 0 
2.11917e-10 0 0 6.29186e-12 0 1.10456e-10 1.42787e-10 4.88484e-11 0 
0 0 0 0 0 0 0 0 0 
2.77985e-11 0 0 0 0 3.47751e-11 0 7.43199e-11 0 
0 0 0 0 2.33024e-11 0 0 2.52149e-11 0 
6.0355e-11 0 0 0 1.55967e-10 0 4.57205e-11 0 0 
2.87583e-10 0 0 2.98338e-10 0 0 0 0 0 
0 0 0 3.97747e-11 0 6.56378e-11 0 0 2.2468e-10 
0 0 0 0 4.96196e-11 6.40515e-12 0 0 0 
0 0 0 0 0 0 0 0 1.92768e-11 
0 0 0 0 9.92278e-11 0 0 4.3435e-11 0 
6.87126e-11 0 0 2.90896e-11 0 0 0 0 9.92115e-11 
0 0 0 0 1.53566e-10 2.78578e-10 2.71314e-08 0 0 
0 1.16431e-11 0 0 0 6.6423e-11 0 0 0 
0 5.28119e-12 0 3.16257e-12 7.24515e-11 0 1.66749e-10 7.83482e-11 0 
0 0 0 0 0 4.64144e-11 0 0 0 
0 0 0 0 0 0 0 0 0 
0 0 1.24605e-12 0 0 0 1.25899e-11 0 0 
0 0 0 2.53753e-11 5.37308e-11 0 0 1.9145e-11 3.13744e-11 
0 0 0 0 0 4.91995e-12 0 6.28235e-11 4.27853e-11 
0 0 0 0 0 9.13761e-12 0 0 0 
0 1.23538e-11 0 0 0 0 0 0 0 
0 0 0 0 0 0 0 0 0 
0 0 0 0 0 0 0 0 0 
0 0 0 0 0 0 0 0 0 
0 0 0 0 0 0 0 0 0 
0 0 0 2.05267e-12 0 0 6.71475e-11 1.61007e-11 0 
1.08919e-10 2.08211e-11 3.15708e-11 0 0 0 2.64349e-12 0 1.88181e-10 
0 0 2.4515e-11 0 0 2.70815e-10 0 0 2.11438e-10 
0 0 0 0 2.68272e-08 0 0 4.27086e-11 0 
4.47768e-11 0 0 0 6.95706e-11 0 0 0 0 
0 0 0 0 0 0 0 0 0 
0 0 1.83825e-12 0 0 6.68344e-11 7.20954e-11 2.17962e-11 0 
0 0 0 0 0 0 0 0 0 
0 0 0 0 0 0 0 0 1.22189e-10 
0 1.62504e-11 1.81051e-10 1.03458e-10 0 0 2.01623e-11 0 0 
0 0 0 0 0 1.39297e-11 0 0 4.09633e-12 
0 0 0 9.52924e-11 0 0 0 0 3.26318e-11 
3.02306e-11 0 1.4532e-10 0 0 1.17619e-11 0 0 0 
0 8.57186e-11 0 0 0 0 0 1.20889e-10 0 
0 0 0 2.32401e-10 0 0 0 0 0 
0 0 0 0 0 4.96622e-11 0 0 0 
0 0 0 3.57725e-11 0 0 0 0 0 
0 0 0 4.91412e-11 5.73856e-11 9.89917e-11 8.50782e-11 0 0 
0 0 0 0 0 0 0 0 0 
0 0 0 2.66374e-11 0 0 0 0 0 
0 0 0 4.31732e-11 0 1.35043e-10 4.81749e-11 0 0 
0 1.89946e-10 0 0 0 0 0 0 0 
0 0 0 0 3.52573e-11 0 0 0 0 
0 0 0 0 0 0 0 0 0 
0 0 0 0 0 0 0 0 0 
0 0 0 0 0 0 0 0 0 
0 0 0 0 0 0 0 0 0 
0 0 0 0 0 0 0 0 0 
0 0 5.19804e-11 0 0 5.71197e-11 0 2.76177e-11 1.24395e-11 
0 0 0 0 0 0 0 0 0 
0 1.39656e-10 0 0 0 0 0 0 0 
0 7.11501e-11 2.48818e-10 0 0 8.86485e-11 0 0 0 
4.32531e-11 0 0 1.73009e-11 0 0 0 0 1.50554e-11 
0 0 0 0 0 0 2.87688e-11 0 6.88596e-11 
0 0 0 7.1403e-11 6.86614e-11 0 0 0 0 
1.74939e-10 0 0 3.03445e-08 0 0 0 3.48512e-08 0 
0 0 0 1.62202e-10 0 1.07337e-10 0 6.75622e-11 1.71511e-10 
1.52128e-11 2.33553e-11 7.74373e-11 0 0 0 0 5.9257e-11 0 
5.43328e-11 0 0 0 0 0 1.73511e-11 0 0 
0 0 0 0 0 0 0 0 0 
2.45465e-11 0 0 0 7.66677e-11 0 0 0 6.11767e-11 
0 0 0 1.9877e-11 0 0 0 5.6445e-11 0 
7.87562e-11 0 0 0 0 0 0 8.82144e-11 4.01805e-11 
0 0 0 0 0 0 1.59424e-10 0 0 
0 0 0 0 0 0 0 0 0 
0 0 0 0 0 7.2839e-11 6.22099e-11 0 0 
0 0 0 0 1.46315e-11 0 0 0 0 
0 3.75023e-11 0 6.05392e-11 0 0 0 0 0 
0 0 9.7158e-11 0 0 0 0 0 0 
0 0 4.74876e-11 6.4257e-11 2.06635e-11 9.99561e-11 0 5.08851e-11 1.35362e-10 
0 0 0 0 0 0 0 0 0 
0 0 0 0 0 0 0 0 0 
0 0 0 0 0 0 0 0 0 
0 0 0 0 0 0 0 0 0 
0 0 0 0 0 0 0 0 0 
0 0 0 0 0 0 0 0 0 
0 4.33443e-11 0 8.95957e-11 0 6.26865e-11 0 0 0 
0 0 0 1.09404e-10 4.25792e-11 4.43181e-11 0 9.60107e-11 0 
0 0 0 0 0 0 0 0 0 
0 0 0 0 0 1.23911e-11 0 0 0 
0 0 0 0 0 0 1.01972e-10 0 0 
0 0 8.13668e-11 0 0 0 8.53944e-12 0 0 
0 0 0 0 0 7.78286e-11 0 1.79863e-10 0 
0 0 2.43671e-10 0 0 0 0 0 0 
0 0 0 0 2.63274e-08 0 0 0 0 
0 0 0 0 0 0 0 0 0 
0 0 0 0 0 0 0 0 1.33362e-11 
0 0 0 0 2.40675e-11 0 0 0 6.38964e-11 
0 4.36744e-12 0 0 1.32561e-10 0 0 0 0 
5.37011e-11 0 0 0 0 0 1.06596e-10 0 8.10083e-11 
6.23178e-11 9.21332e-11 0 0 0 0 1.18516e-10 0 0 
1.07071e-10 2.49738e-08 0 0 0 1.20309e-10 4.73585e-11 0 0 
0 1.88626e-10 0 0 0 0 2.83873e-08 0 0 
6.53767e-11 0 0 0 0 0 0 0 0 
0 0 0 0 0 0 0 0 0 
0 4.74957e-11 0 0 0 1.01789e-10 5.79577e-11 0 0 
7.73306e-12 0 0 0 0 0 0 0 0 
0 0 0 0 0 0 0 0 7.48277e-11 
4.12751e-11 0 0 0 0 0 0 0 0 
0 0 0 0 0 0 0 0 0 
0 0 0 0 0 0 0 0 0 
0 0 0 0 0 0 0 0 0 
0 0 0 0 0 0 0 0 0 
0 0 0 0 0 0 1.99915e-11 0 0 
0 6.34016e-11 0 0 0 0 0 9.41551e-11 0 
3.94745e-10 0 0 0 2.90641e-11 7.62391e-11 0 0 0 
0 3.85868e-08 3.87965e-08 0 0 0 3.03724e-11 0 0 
0 0 6.00282e-11 7.30594e-12 0 0 0 0 0 
0 0 8.37107e-11 0 0 4.4199e-11 0 0 0 
0 0 2.10317e-11 0 0 0 0 0 0 
0 1.91527e-11 0 0 8.2901e-12 0 0 0 0 
0 0 0 0 3.3405e-08 0 0 2.1652e-10 0 
2.60727e-10 0 2.70738e-10 0 0 1.14563e-11 0 0 3.17137e-12 
0 0 0 0 0 5.23966e-11 0 0 0 
0 0 0 0 0 0 0 0 0 
0 7.67743e-11 0 0 0 0 0 0 0 
0 7.2807e-12 0 0 0 0 0 0 0 
0 0 0 1.15689e-10 0 0 0 1.60628e-10 0 
0 1.04889e-11 0 0 0 0 0 0 0 
0 7.36189e-11 8.77557e-12 0 9.96818e-11 5.5144e-11 0 2.15254e-10 0 
0 0 0 0 9.55354e-11 0 0 0 2.57649e-11 
0 0 0 0 0 0 0 0 0 
0 0 0 0 1.29205e-11 1.7348e-11 0 0 1.98194e-11 
0 0 0 0 2.59484e-10 0 0 1.3968e-10 0 
3.97325e-11 1.27569e-10 0 0 0 1.11976e-10 2.22749e-10 0 0 
0 0 0 0 0 0 0 0 2.13533e-11 
0 0 0 0 1.33442e-11 5.24421e-12 0 0 0 
0 0 0 0 0 0 0 0 0 
0 0 0 0 0 0 0 0 0 
0 0 0 0 0 0 0 0 0 
0 0 0 0 0 0 0 0 0 
0 0 0 0 1.90061e-11 0 0 0 0 
0 0 6.40944e-11 0 0 0 0 0 0 
0 1.29252e-11 0 0 4.62827e-11 0 8.27625e-11 0 0 
0 0 2.31759e-10 0 0 9.16364e-11 1.05554e-10 0 0 
0 0 3.59812e-11 0 0 0 0 0 0 
6.05285e-12 0 0 9.00903e-11 0 1.14584e-10 0 0 0 
0 0 0 0 0 0 0 0 0 
0 0 0 0 0 0 7.81958e-12 0 1.84278e-11 
0 4.86658e-10 0 0 0 6.09016e-11 0 2.73121e-11 0 
5.27125e-11 0 0 0 0 0 8.05719e-11 0 0 
0 9.27096e-11 0 0 5.00304e-11 0 0 4.29013e-11 0 
0 0 0 0 0 3.11271e-11 0 0 0 
0 0 0 0 1.09487e-11 0 0 0 0 
0 0 0 0 0 0 0 0 0 
0 3.3368e-11 5.50036e-11 0 0 0 0 0 0 
3.85451e-11 0 0 8.70653e-11 0 0 0 0 0 
0 0 0 0 0 2.39882e-11 0 5.67475e-11 0 
5.44325e-11 0 0 2.14084e-10 0 0 0 4.21574e-11 0 
5.38759e-12 0 0 0 0 0 0 0 0 
0 0 0 0 0 0 0 0 0 
1.93117e-10 1.71801e-10 2.68637e-08 0 0 1.95236e-10 0 0 0 
0 0 5.22231e-11 0 0 2.40208e-11 0 0 0 
0 0 0 1.37617e-11 0 0 0 0 0 
0 0 0 0 0 0 0 0 0 
0 0 0 0 0 0 0 0 0 
0 0 0 0 0 0 0 0 0 
0 0 0 0 0 0 0 0 0 
0 0 0 0 0 0 0 0 0 
0 0 0 0 0 0 0 5.22483e-11 0 
0 2.82507e-11 0 0 0 2.68485e-08 0 3.85227e-10 1.11656e-10 
0 0 0 0 2.81e-10 2.91759e-10 0 0 0 
5.04828e-11 1.99169e-10 0 0 1.11558e-10 0 0 0 0 
0 0 0 0 0 0 0 0 0 
0 0 0 3.49688e-11 9.99512e-11 9.66555e-11 0 3.01356e-10 0 
0 2.3405e-11 0 0 0 0 6.27198e-11 0 0 
0 0 0 1.07863e-10 2.46213e-11 0 3.88067e-11 0 0 
0 0 3.97428e-11 0 1.03304e-10 8.68472e-12 8.40439e-12 0 0 
9.45368e-11 0 7.71237e-12 1.42621e-11 0 0 0 5.79848e-11 0 
0 0 0 0 0 0 0 0 0 
0 0 0 0 3.23329e-11 0 4.18943e-11 0 0 
0 0 0 0 0 0 0 0 0 
0 0 0 0 0 0 4.71414e-11 0 0 
0 0 1.26829e-10 0 0 0 0 8.3751e-12 0 
0 0 0 0 0 5.21155e-11 0 0 1.08051e-11 
1.34351e-10 0 0 0 0 0 0 0 1.87631e-10 
2.73323e-10 0 0 0 9.70859e-11 0 0 2.12581e-11 0 
1.72326e-11 0 0 0 0 0 0 0 0 
0 0 0 0 0 0 0 0 0 
1.10992e-10 8.40622e-11 7.17771e-11 0 0 0 0 0 0 
0 0 2.03351e-10 2.83138e-11 4.21452e-11 1.12363e-10 0 3.11665e-08 0 
0 0 0 0 0 0 0 0 0 
0 0 0 0 0 0 0 0 0 
0 0 0 0 0 0 0 0 0 
0 0 0 0 0 0 0 0 0 
0 0 0 0 0 0 0 0 0 
0 0 0 0 0 0 0 0 0 
0 0 0 0 0 0 0 2.49e-10 4.40094e-11 
0 0 0 0 2.82738e-10 1.61884e-10 3.99767e-13 2.7755e-12 0 
0 3.3681e-11 0 1.85121e-10 0 0 0 0 0 
3.45311e-11 0 0 0 0 0 0 0 0 
0 0 0 0 0 0 0 1.27343e-10 0 
0 1.30068e-10 0 0 0 0 5.90554e-11 0 2.88045e-11 
1.05248e-11 0 0 5.25518e-11 0 3.41068e-11 0 0 0 
0 0 0 0 0 4.8339e-11 2.12083e-10 2.8874e-11 0 
0 0 0 2.10903e-11 0 0 0 1.92244e-11 0 
0 9.6231e-11 0 0 0 0 0 0 0 
0 5.45346e-11 1.34402e-10 0 0 0 0 0 2.11028e-11 
1.20631e-11 0 6.16373e-11 0 0 0 0 0 0 
1.21653e-10 0 0 0 0 0 0 0 9.44365e-11 
0 0 0 0 0 0 0 0 0 
0 0 0 0 0 0 3.41108e-11 8.02008e-11 0 
1.36295e-11 1.132e-10 0 0 0 0 0 0 0 
1.02955e-10 0 0 0 0 0 0 0 0 
0 2.6524e-08 0 0 0 0 0 4.89018e-11 0 
0 0 0 0 0 0 0 0 0 
2.63684e-11 0 0 0 1.20358e-10 0 0 0 3.2293e-10 
0 0 0 1.49209e-10 0 0 0 0 0 
0 0 8.34221e-11 0 0 0 0 0 0 
0 0 0 4.84331e-11 0 0 0 0 0 
0 0 0 0 0 0 0 0 0 
0 0 0 0 0 0 0 0 0 
0 0 0 0 0 0 0 0 0 
0 0 0 0 0 0 0 0 0 
0 0 0 0 0 1.57479e-11 0 0 0 
0 0 0 0 0 0 1.36988e-10 0 0 
9.41789e-13 7.87208e-11 7.98165e-11 0 0 0 0 0 0 
0 0 0 0 0 0 0 5.53264e-12 0 
0 0 0 7.10736e-11 0 0 8.04219e-12 2.24287e-11 0 
0 0 0 0 0 0 0 0 0 
0 0 2.66103e-10 2.72053e-08 0 0 0 0 0 
0 0 0 0 0 0 0 5.74125e-11 9.56113e-12 
4.4968e-11 0 7.85032e-11 0 0 0 0 0 0 
0 0 0 0 0 0 0 0 0 
0 1.09739e-10 1.31495e-10 0 0 0 2.6543e-08 0 1.61775e-10 
0 0 0 0 0 0 5.40052e-11 0 0 