# vtk DataFile Version 5.1
vtk output
ASCII
DATASET STRUCTURED_POINTS
DIMENSIONS 250 250 1
SPACING 1 1 1
ORIGIN 0 0 0
POINT_DATA 62500
FIELD FieldData 6
feature_1 1 62500 float
0 0 0 0 0 0 0 0 0 
0 0 0 0 0 0 0 0 0 
0 0 0 0 0 0 0 0 0 
0 0 0 0 0 0 0 0 0 
0 0 0 0 0 0 0 0 0 
0 0 0 0 0 0 0 0 0 
0 0 0 0 0 0 0 0 0 
0 0 0 0 0 0 0 0 0 
0 0 0 0 0 0 0 0 0 
0 0 0 0 0 0 0 0 0 
0 0 0 0 0 0 0 0 0 
0 0 0 0 0 0 0 0 0 
0 0 0 0 0 0 0 0 0 
0 0 0 0 0 0 0 0 0 
0 0 0 0 0 0 0 0 0 
0 0 0 0 0 0 0 0 0 
0 0 0 0 0 0 0 0 0 
0 0 0 0 0 0 0 0 0 
0 0 0 0 0 0 0 0 0 
0 0 0 0 0 0 0 0 0 
0 0 0 0 0 0 0 0 0 
0 0 0 0 0 0 0 0 0 
0 0 0 0 0 0 0 0 0 
0 0 0 0 0 0 0 0 0 
0 0 0 0 0 0 0 0 0 
0 0 0 0 0 0 0 0 0 
0 0 0 0 0 0 0 0 0 
0 0 0 0 0 0 0 0 0 
0 0 0 0 0 0 0 0 0 
0 0 0 0 0 0 0 0 0 
0 0 0 0 0 0 0 0 0 
0 0 0 0 0 0 0 0 0 
0 0 0 0 0 0 0 0 0 
0 0 0 0 0 0 0 0 0 
0 0 0 0 0 0 0 0 0 
0 0 0 0 0 0 0 0 0 
0 0 0 0 0 0 0 0 0 
0 0 0 0 0 0 0 0 0 
0 0 0 0 0 0 0 0 0 
0 0 0 0 0 0 0 0 0 
0 0 0 0 0 0 0 0 0 
0 0 0 0 0 0 0 0 0 
0 0 0 0 0 0 0 0 0 
0 0 0 0 0 0 0 0 0 
0 0 0 0 0 0 0 0 0 
0 0 0 0 0 0 0 0 0 
0 0 0 0 0 0 0 0 0 
0 0 0 0 0 0 0 0 0 
0 0 0 0 0 0 0 0 0 
0 0 0 0 0 0 0 0 0 
0 0 0 0 0 0 0 0 0 
0 0 0 0 0 0 0 0 0 
0 0 0 0 0 0 0 0 0 
0 0 0 0 0 0 0 0 0 
0 0 0 0 0 0 0 0 0 
0 0 0 0 0 0 0 0 0 
0 0 0 0 0 0 0 0 0 
0 0 0 0 0 0 0 0 0 
0 0 0 0 0 0 0 0 0 
0 0 0 0 0 0 0 0 0 
0 0 0 0 0 0 0 0 0 
0 0 0 0 0 0 0 0 0 
0 0 0 0 0 0 0 0 0 
0 0 0 0 0 0 0 0 0 
0 0 0 0 0 0 0 0 0 
0 0 0 0 0 0 0 0 0 
0 0 0 0 0 0 0 0 0 
0 0 0 0 0 0 0 0 0 
0 0 0 0 0 0 0 0 0 
0 0 0 0 0 0 0 0 0 
0 0 0 0 0 0 0 0 0 
0 0 0 0 0 0 0 0 0 
0 0 0 0 0 0 0 0 0 
0 0 0 0 0 0 0 0 0 
0 0 0 0 0 0 0 0 0 
0 0 0 0 0 0 0 0 0 
0 0 0 0 0 0 0 0 0 
0 0 0 0 0 0 0 0 0 
0 0 0 0 0 0 0 0 0 
0 0 0 0 0 0 0 0 0 
0 0 0 0 0 0 0 0 0 
0 0 0 0 0 0 0 0 0 
0 0 0 0 0 0 0 0 0 
0 0 0 0 0 0 0 0 0 
0 0 0 0 0 0 0 0 0 
0 0 0 0 0 0 0 0 0 
0 0 0 0 0 0 0 0 0 
0 0 0 0 0 0 0 0 0 
0 0 0 0 0 0 0 0 0 
0 0 0 0 0 0 0 0 0 
0 0 0 0 0 0 0 0 0 
0 0 0 0 0 0 0 0 0 
0 0 0 0 0 0 0 0 0 
0 0 0 0 0 0 0 0 0 
0 0 0 0 0 0 0 0 0 
0 0 0 0 0 0 0 0 0 
0 0 0 0 0 0 0 0 0 
0 0 0 0 0 0 0 0 0 
0 0 0 0 0 0 0 0 0 
0 0 0 0 0 0 0 0 0 
0 0 0 3.09757e-13 0 0 0 0 0 
0 0 0 0 0 0 0 0 0 
0 0 0 0 0 0 0 0 0 
0 0 0 0 0 0 0 0 0 
0 0 0 0 0 0 0 0 0 
0 0 0 0 0 0 0 0 0 
0 0 0 0 0 0 0 0 0 
0 0 0 0 0 0 0 0 0 
0 0 0 0 0 0 0 0 0 
0 0 0 0 0 0 0 0 0 
0 0 0 0 0 0 0 0 0 
0 0 0 0 0 0 0 0 0 
0 0 0 0 0 0 0 0 0 
0 0 0 0 0 0 0 0 0 
0 0 0 0 0 0 0 0 0 
0 0 0 0 0 0 0 0 0 
0 0 0 0 0 0 0 0 0 
0 0 0 0 0 0 0 0 0 
0 0 0 0 0 0 0 0 0 
0 0 0 0 0 0 0 0 0 
0 0 0 0 0 0 0 0 0 
0 0 0 0 0 0 0 0 0 
0 0 0 0 0 0 0 0 0 
0 0 0 0 0 0 0 0 0 
0 0 0 0 0 0 0 0 0 
0 0 0 0 0 0 0 0 0 
0 0 0 0 0 0 0 0 0 
0 0 0 0 0 0 0 0 0 
0 0 0 0 0 0 0 0 0 
0 0 0 0 0 0 0 0 0 
0 0 0 0 0 0 0 0 0 
0 0 0 0 0 0 0 0 0 
0 0 0 0 0 0 0 0 0 
0 0 0 0 0 0 0 0 0 
0 0 0 0 0 0 0 0 0 
0 0 0 0 0 0 0 0 0 
0 0 0 0 0 0 0 0 0 
0 0 0 0 0 0 0 0 0 
0 0 0 0 0 0 0 0 0 
0 0 0 0 0 0 0 0 0 
0 0 0 0 0 0 0 0 0 
0 0 0 0 0 0 0 0 0 
0 0 0 0 0 0 0 0 0 
0 0 0 0 0 0 0 0 0 
0 0 0 0 0 0 0 0 0 
0 0 0 0 0 0 0 0 0 
0 0 0 0 0 0 0 0 0 
0 0 0 0 0 0 0 0 0 
0 0 0 0 0 0 0 0 0 
0 0 0 0 0 0 0 0 0 
0 0 0 0 0 0 0 0 0 
0 0 0 0 0 0 0 0 0 
0 0 0 0 0 0 0 0 0 
0 0 0 0 0 0 0 0 0 
0 0 0 0 0 0 0 0 0 
0 0 0 0 0 0 0 0 0 
0 0 0 0 0 0 0 0 0 
0 0 0 0 0 3.39554e-13 0 0 0 
0 0 0 0 0 0 0 0 0 
0 0 0 0 0 0 0 0 0 
0 0 0 0 0 0 0 0 0 
0 0 0 0 0 0 0 0 0 
0 0 0 0 0 0 0 0 0 
0 0 0 0 0 0 0 0 0 
0 0 0 0 0 0 0 0 0 
0 0 0 0 0 0 0 0 0 
0 0 0 0 0 0 0 7.09453e-13 0 
0 0 0 0 0 0 0 0 0 
0 0 0 0 0 0 0 0 0 
0 0 0 0 0 0 0 0 0 
0 0 0 0 0 0 0 0 0 
0 0 0 0 0 0 0 0 0 
0 0 0 0 0 0 0 0 0 
0 0 0 0 0 0 0 0 0 
0 0 0 0 0 0 0 0 0 
0 0 0 0 0 0 0 0 0 
0 0 0 0 0 0 0 0 0 
0 0 0 0 0 0 0 0 0 
0 0 0 0 0 0 0 0 0 
0 0 0 0 0 0 0 0 0 
0 0 0 0 0 0 0 0 0 
0 0 0 0 0 0 0 0 0 
0 0 0 0 0 0 0 0 0 
0 0 0 0 0 0 0 0 0 
0 0 0 0 0 0 0 0 0 
0 0 0 0 0 0 0 0 0 
0 0 0 0 0 0 0 0 0 
0 0 0 0 0 0 0 0 0 
0 0 0 0 0 0 0 0 0 
0 0 0 0 0 0 0 0 0 
0 0 0 0 0 0 0 0 0 
0 0 0 0 0 0 0 0 0 
0 0 0 0 0 0 0 0 0 
0 0 0 0 0 0 1.11769e-13 0 0 
0 0 0 0 0 0 0 0 0 
0 0 0 0 0 0 0 0 0 
0 0 0 0 0 0 0 0 0 
0 0 0 0 0 0 0 0 0 
0 0 0 0 0 0 0 0 0 
0 0 0 0 0 0 0 0 0 
0 0 0 0 0 0 0 0 0 
0 0 0 0 0 0 0 0 0 
0 0 0 0 0 0 0 0 0 
0 0 0 0 0 0 0 0 0 
0 0 0 0 0 0 0 0 0 
0 0 0 0 0 0 0 0 0 
0 0 0 0 0 0 0 0 0 
0 0 0 0 0 0 0 0 0 
0 0 0 0 0 0 0 0 0 
0 0 0 0 0 0 0 0 0 
0 0 0 0 0 0 0 0 0 
0 0 0 0 0 0 0 0 0 
0 0 0 0 0 0 0 0 0 
0 0 0 0 0 0 0 0 0 
0 0 0 0 0 0 0 0 0 
0 0 0 0 0 0 0 0 0 
0 0 0 0 0 0 0 0 0 
0 0 0 0 0 0 0 0 0 
0 0 0 0 0 0 0 0 0 
0 0 0 0 0 0 0 0 0 
0 0 0 0 0 0 0 0 0 
0 0 0 0 0 0 0 0 0 
0 0 0 0 0 0 0 0 0 
0 0 0 0 0 0 0 0 0 
0 0 0 0 0 0 0 0 0 
0 0 0 0 0 0 0 0 0 
0 0 0 0 0 0 0 0 0 
0 0 0 0 0 0 0 0 0 
0 0 0 0 0 0 0 0 0 
0 0 0 0 0 0 0 0 0 
0 0 0 0 0 0 0 0 0 
0 0 0 0 0 0 0 0 0 
0 0 0 0 0 0 0 0 0 
0 0 0 0 0 0 0 0 0 
0 0 0 0 0 0 0 0 0 
0 0 0 0 0 0 0 0 0 
0 0 0 0 0 0 0 0 0 
0 0 0 0 0 0 0 0 0 
0 0 0 0 0 0 0 0 0 
0 0 0 0 0 0 0 0 0 
0 0 0 0 0 0 0 0 0 
0 0 0 0 0 0 0 0 0 
0 0 0 0 0 0 0 0 0 
0 0 0 0 0 0 0 0 0 
0 0 0 0 0 0 0 0 0 
0 0 0 0 0 0 0 0 0 
0 0 0 0 0 0 0 0 0 
0 0 0 0 0 0 0 0 0 
0 0 0 0 0 0 0 0 0 
0 0 0 0 0 0 0 0 0 
0 0 0 0 0 0 0 0 0 
0 0 0 0 0 0 0 0 0 
0 0 0 0 0 0 0 0 0 
0 0 0 0 0 0 0 0 0 
0 0 0 0 0 0 0 0 0 
0 0 0 0 0 0 0 0 0 
0 0 0 0 0 0 0 0 0 
0 0 0 0 0 0 0 0 0 
0 0 0 0 0 0 0 0 0 
0 0 0 0 0 0 0 0 0 
0 0 0 0 0 0 0 0 0 
0 0 0 0 0 0 0 0 0 
0 0 0 0 0 0 0 0 0 
0 0 0 0 0 0 0 0 0 
0 0 0 0 0 0 0 0 0 
0 0 0 0 0 0 0 0 0 
0 0 0 0 0 0 0 0 0 
0 0 0 0 0 0 0 0 0 
0 0 0 0 0 0 0 0 0 
0 0 0 0 0 0 0 0 0 
0 0 0 0 0 0 0 0 0 
0 0 0 0 0 0 0 0 0 
0 0 0 0 0 0 0 0 0 
0 0 0 0 0 0 0 0 0 
0 0 0 0 0 0 0 0 0 
0 0 0 0 0 0 0 0 0 
0 0 0 0 0 0 0 0 0 
0 0 0 0 0 0 0 0 0 
0 0 0 0 0 0 0 0 0 
0 0 0 0 0 0 0 0 0 
0 0 0 0 0 0 0 0 0 
0 0 0 0 0 0 0 0 0 
0 0 0 0 0 0 0 0 0 
0 0 0 0 0 0 0 0 0 
0 0 0 0 0 0 0 0 0 
0 0 0 0 0 0 0 0 0 
0 0 0 0 0 0 0 0 0 
0 0 0 0 0 0 0 0 0 
0 0 0 0 0 0 0 0 0 
0 0 0 0 0 0 0 0 0 
0 0 0 0 0 0 0 0 0 
0 0 0 0 0 0 0 0 0 
0 0 0 0 0 0 0 0 0 
0 0 0 0 0 0 0 0 0 
0 0 0 0 0 0 0 0 0 
0 0 0 0 0 0 0 0 0 
0 0 0 0 0 0 0 0 0 
0 0 0 0 0 0 0 0 0 
0 0 0 0 0 0 0 0 0 
0 0 0 0 0 0 0 0 0 
0 0 0 0 0 0 0 0 0 
0 0 0 0 0 0 0 0 0 
0 0 0 0 0 0 0 0 0 
0 0 0 0 0 0 0 0 0 
0 0 0 0 0 0 0 0 0 
0 0 0 0 0 0 0 0 0 
0 0 0 0 0 0 0 0 0 
0 0 0 0 0 0 0 0 0 
0 0 0 0 0 0 0 0 0 
0 0 0 0 0 0 0 0 0 
0 0 0 0 0 0 0 0 0 
0 0 0 0 0 0 0 0 0 
0 0 0 0 0 0 0 0 0 
0 0 0 0 0 0 0 0 0 
0 0 0 0 0 0 0 0 0 
0 0 0 0 0 0 0 0 0 
0 0 0 0 0 0 0 0 0 
0 0 0 0 0 0 0 0 0 
0 0 0 0 0 0 0 0 0 
0 0 0 0 0 0 0 0 0 
0 0 0 0 0 0 0 0 0 
0 0 0 0 0 0 0 0 0 
0 0 0 0 0 0 0 0 0 
0 0 0 0 0 0 0 0 0 
0 0 0 0 0 0 0 0 0 
0 0 0 0 0 0 0 0 0 
0 0 0 0 0 0 0 0 0 
0 0 0 0 0 0 0 0 0 
0 0 0 0 0 0 0 0 0 
0 0 0 0 0 0 0 0 0 
0 0 0 0 0 0 0 0 0 
0 0 0 0 0 0 0 0 0 
0 0 0 0 0 0 0 0 0 
0 0 0 0 0 0 0 0 0 
0 0 0 0 0 0 0 0 0 
0 0 0 0 0 0 0 0 0 
0 0 0 0 0 0 0 0 0 
0 0 0 0 0 0 0 0 0 
0 0 0 0 0 0 0 0 0 
0 0 0 0 0 0 0 0 0 
0 0 0 0 0 0 0 0 0 
0 0 0 0 0 0 0 0 0 
0 0 0 0 0 0 0 0 0 
0 0 0 0 0 0 0 0 0 
0 0 0 0 0 0 0 0 0 
0 0 0 0 0 0 0 0 0 
0 0 0 0 0 0 0 0 0 
0 0 0 0 0 0 0 0 0 
0 0 0 0 0 0 0 0 0 
0 0 0 0 0 0 0 0 0 
0 0 0 0 0 0 0 0 0 
0 0 0 0 0 0 0 0 0 
0 0 0 0 0 0 0 0 0 
0 0 0 0 0 0 0 0 0 
0 0 0 0 0 0 0 0 0 
0 0 0 0 0 0 0 0 0 
0 0 0 0 0 0 0 0 0 
0 0 0 0 0 0 0 0 0 
0 0 0 0 0 0 0 0 0 
0 0 0 0 0 0 0 0 0 
0 0 0 0 0 0 0 0 0 
0 0 0 0 0 0 0 0 0 
0 0 0 0 0 0 0 0 0 
0 0 0 0 0 0 0 0 0 
0 0 0 0 0 0 0 0 0 
0 0 0 0 0 0 0 0 0 
0 0 0 0 0 0 0 0 0 
0 0 0 0 0 0 0 0 0 
0 0 0 0 0 0 0 0 0 
0 0 0 0 0 0 0 0 0 
0 0 0 0 0 0 0 0 0 
0 0 0 0 0 0 0 0 0 
0 0 0 0 0 0 0 0 0 
0 0 0 0 0 0 0 0 0 
0 0 0 0 0 0 0 0 0 
0 0 0 0 0 0 0 0 0 
0 0 0 0 0 0 0 0 0 
0 0 0 0 0 0 0 0 0 
0 0 0 0 0 0 0 0 0 
0 0 0 0 0 0 0 0 0 
0 0 0 0 0 0 0 0 0 
0 0 0 0 0 0 0 0 0 
0 0 0 0 0 0 0 0 0 
0 0 0 0 0 0 0 0 0 
0 0 0 0 0 0 0 0 0 
0 0 0 0 0 0 0 0 0 
0 0 0 0 0 0 0 0 0 
0 0 0 0 0 0 0 0 0 
0 0 0 0 0 0 0 0 0 
0 0 0 0 0 0 0 0 0 
0 0 0 0 0 0 0 0 2.40648e-12 
0 0 0 0 0 0 0 0 0 
0 0 0 0 0 0 0 0 0 
0 0 0 0 0 0 0 0 0 
0 0 0 0 0 0 0 0 0 
0 0 0 0 0 0 0 0 0 
0 0 0 0 0 0 0 0 0 
0 0 0 0 0 0 0 0 0 
0 0 0 0 0 0 0 0 0 
0 0 0 0 0 0 0 0 0 
0 0 0 0 0 0 0 0 0 
0 0 0 0 0 0 0 0 0 
0 0 0 0 0 0 0 0 0 
0 0 0 0 0 0 0 0 0 
0 0 0 0 0 0 0 0 0 
0 0 0 0 0 0 0 0 0 
0 0 0 0 0 0 0 0 0 
0 0 0 0 0 0 0 0 0 
0 0 0 0 0 0 0 0 0 
0 0 0 0 0 0 0 0 0 
0 0 0 0 0 0 0 0 0 
0 0 0 0 0 0 0 0 0 
0 0 0 0 0 0 0 0 0 
0 0 0 0 0 0 0 0 0 
0 0 0 0 0 0 0 0 0 
0 0 0 0 0 0 0 0 0 
0 0 0 0 0 0 0 0 0 
0 0 0 0 0 0 0 0 0 
0 0 0 0 0 0 0 0 0 
0 0 4.68703e-13 0 0 0 0 0 0 
0 0 0 0 0 0 0 0 0 
0 0 0 0 0 0 0 0 0 
0 0 0 0 0 0 0 0 0 
0 0 0 0 0 0 0 0 0 
0 0 0 0 0 0 0 0 0 
0 0 0 0 0 0 0 0 0 
0 0 0 0 0 0 0 0 0 
0 0 0 0 0 0 0 0 0 
0 0 0 0 0 0 0 0 0 
0 0 0 0 0 0 0 0 0 
0 0 0 0 0 0 0 0 0 
0 0 0 0 0 0 0 0 0 
0 0 0 0 0 0 0 0 0 
0 0 0 0 0 0 0 0 0 
0 0 0 0 0 0 0 0 0 
0 0 0 0 0 0 0 0 0 
0 0 0 0 0 0 0 0 0 
0 0 0 0 0 0 0 0 0 
0 0 0 0 0 0 0 0 0 
0 0 0 0 0 0 0 0 0 
0 0 0 0 0 0 0 0 0 
0 0 0 0 0 0 0 0 0 
0 0 0 0 0 0 0 0 0 
0 0 0 0 0 0 0 0 0 
0 0 0 0 0 0 0 0 0 
0 0 0 0 0 0 0 0 0 
0 0 0 0 0 0 0 0 0 
0 0 0 0 0 0 0 0 0 
0 0 0 0 0 0 0 0 0 
0 0 0 0 0 0 0 0 0 
0 0 0 0 0 0 0 0 0 
0 0 0 0 0 0 0 0 0 
2.6677e-12 0 0 0 0 0 0 0 0 
0 0 0 0 0 0 0 0 0 
0 0 0 0 0 0 0 0 0 
0 0 0 0 0 0 0 0 0 
0 0 0 0 0 0 0 0 0 
0 0 0 0 0 0 0 0 0 
0 0 0 0 0 0 0 0 0 
0 0 0 0 0 0 0 0 0 
0 0 0 0 6.60149e-12 0 0 0 0 
0 0 0 0 0 0 0 0 0 
0 0 0 0 0 0 0 0 0 
0 0 0 0 0 0 0 0 0 
0 0 0 0 0 0 0 0 0 
0 0 0 0 0 0 0 0 0 
0 0 0 0 0 0 0 0 0 
0 0 0 0 0 0 0 0 0 
0 0 0 0 0 0 0 0 0 
0 0 0 0 0 0 0 0 0 
0 0 0 0 0 0 0 0 0 
0 0 0 0 0 0 0 0 0 
0 0 0 0 0 0 0 0 0 
0 0 0 0 0 0 0 0 0 
0 0 0 0 0 0 0 0 0 
0 0 0 0 0 0 0 0 0 
0 0 0 0 0 0 0 0 0 
0 0 0 0 0 0 0 0 0 
0 0 0 0 0 0 0 0 0 
0 0 0 0 0 0 0 0 0 
0 2.6527e-12 0 0 0 0 0 0 0 
0 0 0 0 0 0 0 0 0 
0 0 0 0 0 0 0 0 0 
0 0 0 0 0 0 0 0 0 
0 0 0 0 0 0 0 0 0 
0 0 0 0 0 0 0 0 0 
0 0 0 0 0 0 0 0 0 
0 0 0 0 0 0 0 0 0 
0 0 0 0 0 0 0 0 0 
0 0 0 5.17607e-12 0 0 0 0 0 
0 0 0 0 0 0 0 0 0 
0 0 0 0 0 0 0 0 0 
0 0 0 0 0 0 0 0 0 
0 0 0 0 0 0 0 0 0 
0 0 0 0 0 0 0 0 0 
0 0 0 0 0 0 0 0 0 
0 0 0 0 0 0 0 0 0 
0 0 0 0 0 0 0 0 0 
0 0 0 0 0 0 0 0 0 
0 0 0 0 0 0 0 0 0 
0 0 0 0 0 0 0 0 0 
0 0 0 0 0 0 0 0 0 
0 0 0 0 0 0 0 0 0 
0 0 0 0 0 0 0 0 9.89687e-13 
0 0 0 0 0 0 0 0 0 
0 0 0 0 0 0 0 0 0 
0 0 0 0 6.24709e-12 0 0 0 0 
0 0 0 0 0 0 0 0 8.15168e-12 
0 0 0 0 0 0 0 0 0 
0 0 0 0 0 0 0 0 0 
0 0 0 5.44459e-12 0 0 0 0 0 
0 0 0 0 0 0 0 0 0 
0 0 0 8.93868e-12 0 0 0 0 0 
0 0 0 0 0 0 0 0 0 
0 0 0 3.18971e-13 0 0 0 0 0 
0 0 1.1141e-12 0 0 0 0 0 0 
0 0 0 0 0 0 0 0 0 
0 0 0 0 0 0 0 0 0 
0 0 0 0 0 0 0 0 0 
0 0 0 0 0 0 0 0 0 
0 0 0 5.4899e-13 0 0 0 0 0 
0 0 0 0 0 0 0 0 0 
0 0 0 0 0 0 0 0 0 
0 0 0 0 0 0 0 0 0 
0 0 0 0 0 0 0 0 0 
0 0 0 0 0 0 0 0 0 
0 0 0 0 0 0 0 0 0 
0 0 0 0 0 0 0 0 0 
0 0 0 0 0 0 0 0 0 
0 0 0 0 0 0 0 0 0 
0 0 0 0 0 0 0 0 0 
0 0 0 0 0 0 0 0 0 
0 0 0 0 0 0 0 0 0 
0 0 0 0 0 0 0 0 0 
0 0 0 0 0 0 0 0 0 
0 0 0 0 0 0 0 0 0 
0 0 0 0 0 0 0 0 0 
0 0 0 0 0 0 0 0 4.12113e-12 
0 0 0 0 0 0 0 0 0 
0 0 0 0 0 0 0 0 0 
0 0 0 0 0 0 0 3.88228e-12 0 
0 0 0 0 0 0 0 0 0 
0 0 0 0 0 0 0 0 0 
0 0 0 0 0 0 0 0 0 
0 0 0 0 0 6.40466e-13 0 0 0 
0 0 0 0 0 0 0 0 0 
0 0 0 0 0 0 0 0 0 
0 0 0 0 0 0 0 0 0 
0 0 0 0 0 0 0 0 0 
0 0 0 0 0 0 0 0 0 
0 0 0 0 0 0 0 0 0 
0 0 0 0 0 0 0 0 0 
0 0 0 0 0 0 0 0 0 
0 0 0 0 0 0 0 0 0 
0 0 0 0 0 0 0 0 0 
0 0 0 0 0 0 0 0 0 
0 0 0 0 0 0 0 0 0 
0 0 0 0 0 0 0 0 0 
0 0 0 0 0 0 0 0 0 
0 0 0 0 0 0 0 0 0 
0 0 0 0 0 0 0 0 0 
0 0 0 0 0 0 0 0 0 
0 0 0 0 0 0 0 0 0 
1.60627e-11 0 0 0 2.56044e-11 8.52312e-12 0 0 0 
0 0 0 0 0 0 0 0 0 
0 2.33273e-11 0 0 0 0 0 0 1.68296e-11 
0 0 0 0 0 0 0 0 0 
0 0 0 0 0 0 0 0 0 
0 0 0 0 0 0 0 0 0 
0 0 0 0 0 0 0 0 0 
0 0 0 0 0 0 0 0 0 
0 0 0 0 0 0 0 0 0 
0 0 0 0 0 0 0 0 0 
0 0 0 0 0 0 0 0 0 
0 0 0 0 0 0 0 0 0 
0 0 0 0 0 0 0 0 0 
0 0 0 0 0 0 0 0 0 
0 0 0 0 0 0 0 0 0 
0 4.22835e-12 0 0 0 0 0 0 0 
0 0 0 0 0 0 0 0 0 
0 0 0 0 0 0 0 0 0 
0 0 0 0 0 0 0 0 0 
0 0 0 0 0 0 0 0 0 
0 0 0 0 0 0 0 0 0 
0 0 0 0 0 0 0 0 0 
0 0 0 0 0 1.41222e-12 0 0 0 
0 0 0 0 0 0 0 0 0 
0 0 0 0 0 0 0 0 0 
0 0 0 0 0 0 0 0 0 
0 0 5.76355e-12 0 0 0 0 0 0 
0 0 0 0 0 1.47252e-11 1.76661e-11 0 0 
0 0 0 0 0 0 0 0 0 
0 0 0 0 0 0 0 0 0 
0 0 0 0 0 0 0 0 0 
1.33352e-11 0 0 0 0 2.09953e-11 0 0 0 
0 0 0 0 0 9.33805e-12 0 0 0 
0 0 0 0 0 0 0 0 0 
0 0 0 0 0 0 0 0 0 
0 0 0 0 0 0 0 0 0 
0 0 0 0 0 1.19767e-11 0 1.80021e-11 0 
0 0 0 0 0 0 0 0 0 
0 0 0 0 0 0 0 0 0 
0 0 0 0 0 0 0 0 0 
0 0 0 0 0 0 0 0 0 
0 0 0 0 0 0 0 0 0 
0 0 0 0 0 0 0 0 0 
0 0 0 0 0 0 0 7.71616e-12 0 
0 0 0 0 0 0 0 0 0 
0 0 0 0 0 0 0 0 0 
0 0 0 0 0 0 0 0 0 
0 0 0 0 0 0 0 0 0 
0 0 0 0 0 0 0 0 0 
0 0 0 0 0 0 0 0 0 
0 0 0 0 0 0 0 0 0 
0 0 0 0 0 0 0 0 0 
0 0 0 0 0 0 0 0 0 
0 0 0 0 0 0 0 0 0 
0 0 0 0 0 0 0 0 0 
0 0 0 0 0 2.28509e-11 0 2.04493e-11 0 
0 0 0 0 0 0 0 0 0 
0 0 0 0 2.48467e-11 0 3.13916e-11 0 0 
1.09737e-11 0 0 0 0 0 0 0 0 
2.92892e-11 0 0 0 0 0 0 0 0 
0 2.14115e-11 1.94256e-11 0 0 0 0 0 0 
0 0 0 0 0 0 0 0 0 
0 0 0 0 8.77818e-12 0 0 0 0 
0 0 0 0 0 0 1.09706e-11 0 0 
0 0 0 4.82596e-12 0 0 0 0 0 
0 0 0 0 0 0 0 0 0 
0 0 0 0 0 0 0 0 0 
0 0 0 0 0 0 0 0 0 
0 0 0 0 0 0 0 0 0 
0 0 0 0 0 0 0 0 0 
0 0 0 0 0 0 0 0 0 
0 0 7.86909e-12 0 0 0 0 0 0 
0 0 0 0 0 0 0 0 0 
0 0 0 0 0 0 0 0 0 
0 0 0 0 0 0 0 0 0 
0 0 0 0 0 0 0 0 0 
0 0 0 0 0 0 0 0 0 
0 0 0 0 0 0 0 0 0 
0 0 0 0 1.53034e-12 0 0 0 0 
0 0 0 0 0 0 0 0 0 
0 0 0 0 0 0 0 0 0 
0 0 1.12439e-11 1.89211e-11 0 0 0 1.33183e-11 0 
0 0 0 0 0 0 0 0 0 
0 2.37894e-11 0 2.46853e-12 0 0 0 0 0 
0 0 7.78019e-12 0 0 0 0 0 0 
0 0 0 0 0 0 0 0 0 
0 0 0 0 0 0 0 1.21737e-11 0 
0 0 0 0 2.56668e-12 0 0 0 0 
0 2.77812e-11 0 0 0 0 0 0 0 
1.02491e-11 0 0 0 0 0 0 0 0 
0 0 0 0 0 0 0 0 0 
9.30443e-12 0 0 0 0 0 0 8.91212e-12 0 
0 0 0 0 0 0 1.43199e-11 0 0 
0 0 0 0 0 0 0 0 0 
0 0 0 0 0 0 0 0 0 
0 5.16901e-12 0 0 0 0 0 0 0 
0 0 0 0 0 0 0 0 0 
0 0 0 0 0 0 0 0 0 
0 0 0 0 0 0 0 0 9.55184e-12 
0 0 0 1.15575e-11 0 0 0 0 0 
0 0 0 0 0 0 0 0 0 
0 0 0 0 0 0 0 0 0 
0 0 0 0 0 0 0 0 0 
0 0 0 0 0 0 0 0 0 
0 0 0 0 0 0 0 0 0 
0 0 0 0 0 0 0 0 0 
0 0 0 0 0 0 0 0 0 
0 0 0 0 0 0 0 0 0 
0 0 0 0 0 0 0 0 0 
0 0 0 0 0 0 0 0 0 
0 0 7.94599e-12 1.43693e-11 0 1.36053e-11 0 0 0 
3.83799e-11 0 3.70532e-11 0 0 0 0 0 0 
2.51918e-11 0 0 0 0 0 0 0 0 
0 2.23681e-11 0 0 0 0 0 5.32786e-11 0 
0 0 0 0 0 0 0 6.79273e-13 0 
0 0 0 0 0 0 0 0 0 
3.99838e-11 0 0 3.2002e-12 0 1.49085e-11 0 0 0 
0 0 0 0 0 0 7.48142e-12 0 0 
0 0 0 0 0 0 0 0 0 
2.65864e-11 0 0 0 0 0 0 0 0 
0 0 0 0 0 0 0 0 0 
0 0 0 2.15397e-12 0 0 1.31392e-11 0 0 
0 0 0 0 0 0 0 0 0 
0 0 0 0 0 0 0 0 0 
0 0 0 0 0 0 0 0 0 
0 0 0 0 0 0 0 0 0 
0 0 0 0 0 0 0 0 0 
0 0 0 0 0 0 0 0 0 
2.15859e-12 0 0 0 0 0 0 0 0 
0 0 0 0 0 0 0 0 0 
0 0 0 0 0 0 0 0 0 
0 0 0 0 0 0 0 0 0 
0 0 0 0 0 0 0 0 0 
0 0 0 0 0 0 0 0 0 
0 0 0 0 0 0 0 0 0 
0 0 0 0 0 0 1.07214e-11 0 0 
2.87119e-11 0 3.66036e-11 0 0 0 0 0 0 
0 0 0 0 0 0 0 0 0 
0 0 0 0 1.84936e-11 0 2.95912e-11 0 0 
2.28598e-11 3.0489e-11 0 0 0 4.40427e-11 0 0 0 
0 0 0 0 0 0 0 0 0 
0 0 0 2.61637e-11 7.26764e-11 0 0 2.77125e-11 0 
5.00826e-11 0 0 0 0 0 0 0 0 
0 3.29252e-11 0 4.6309e-11 0 0 0 0 0 
0 0 0 0 6.66145e-12 0 0 0 1.46205e-11 
0 0 0 0 0 0 0 0 0 
0 0 0 0 0 0 0 0 0 
0 0 0 6.2663e-11 2.68492e-11 0 0 0 0 
0 0 0 0 5.20357e-12 0 0 0 0 
0 1.21494e-11 0 0 0 0 0 0 0 
0 0 1.31652e-11 0 0 0 0 0 0 
0 0 0 0 0 0 0 0 0 
0 0 0 0 0 0 0 0 0 
0 0 0 0 0 0 0 0 0 
0 0 0 0 0 1.13427e-14 0 0 2.72364e-11 
0 0 0 0 0 0 0 0 0 
0 0 0 0 0 0 0 0 0 
0 0 0 0 0 0 0 0 0 
0 0 0 0 0 0 0 0 0 
0 0 0 0 0 0 0 0 0 
0 0 0 0 0 0 0 0 0 
0 0 0 0 0 0 0 0 0 
0 0 0 0 0 0 0 0 0 
0 0 0 0 0 0 0 0 0 
2.58365e-11 0 0 0 5.93553e-11 0 0 0 0 
0 0 0 0 0 0 0 0 0 
0 0 1.34364e-11 2.00289e-11 0 0 0 0 0 
0 0 0 0 2.00648e-11 0 0 0 0 
0 0 0 0 0 7.26267e-11 0 0 4.28866e-12 
1.96526e-11 0 6.33112e-11 1.02843e-10 0 0 0 0 0 
0 0 0 0 0 0 0 0 0 
4.34366e-11 5.04972e-11 0 0 6.12089e-11 0 0 0 0 
4.15368e-11 0 0 0 0 0 0 0 0 
0 0 0 0 2.0461e-11 0 0 3.37046e-13 0 
0 1.65054e-12 0 0 0 0 0 0 0 
0 0 0 3.78088e-12 5.09065e-11 0 0 1.45494e-11 0 
7.65487e-12 0 0 1.96236e-11 0 0 0 0 0 
0 0 0 0 0 0 0 0 0 
0 1.0136e-11 2.75028e-12 0 0 0 0 0 0 
0 2.33918e-11 0 1.91187e-12 0 0 0 0 0 
0 0 0 0 0 0 0 0 0 
0 0 0 0 0 0 0 9.23228e-12 0 
0 1.56202e-11 0 0 0 0 0 0 0 
0 0 0 0 9.15619e-12 0 0 0 0 
0 0 3.29941e-13 0 0 0 0 0 0 
0 0 0 0 0 0 0 0 0 
0 0 0 0 0 0 0 0 0 
0 0 0 0 0 0 0 0 0 
0 0 0 0 0 0 0 0 0 
0 0 0 0 0 0 0 0 0 
0 0 0 0 0 1.16299e-11 0 0 0 
0 5.67156e-12 0 0 1.06909e-11 0 0 0 0 
0 0 4.58728e-11 0 0 0 0 5.14017e-11 0 
0 0 0 0 0 2.25801e-11 0 0 0 
0 0 0 0 8.46581e-11 0 2.02443e-10 0 0 
0 0 5.17139e-11 3.78045e-11 1.86397e-11 0 0 2.61735e-11 0 
0 0 0 0 0 6.49019e-12 0 0 7.50441e-11 
0 0 0 0 0 0 8.01712e-11 0 0 
0 0 0 0 7.39964e-11 0 0 5.45434e-11 0 
0 0 0 0 0 2.60592e-11 0 0 0 
3.37692e-11 0 0 0 0 0 2.24715e-11 0 0 
0 0 0 0 0 0 0 0 5.23674e-11 
0 0 0 0 8.79519e-11 0 1.36747e-10 0 0 
0 3.64957e-11 0 0 0 0 3.04142e-11 0 0 
6.14553e-11 0 4.84728e-11 0 0 2.53263e-11 0 0 0 
0 0 0 0 1.5412e-11 0 0 2.95326e-11 0 
0 0 1.94681e-11 2.95681e-11 0 0 0 0 0 
0 0 0 0 0 0 0 0 0 
0 0 0 0 0 0 0 0 0 
0 0 0 0 0 0 0 0 0 
0 0 2.09218e-11 7.44624e-12 0 0 0 3.35839e-11 0 
0 0 0 0 0 0 0 0 0 
0 0 0 0 0 0 0 0 0 
0 0 0 0 0 0 0 0 0 
0 0 0 0 0 0 0 0 0 
0 0 0 0 0 0 0 0 0 
0 0 0 0 0 0 0 0 0 
0 0 0 0 0 0 0 3.67523e-11 0 
0 0 0 0 8.22007e-12 6.1164e-12 0 0 0 
0 0 0 0 0 4.52374e-11 0 0 0 
0 2.39369e-10 0 0 5.85971e-11 0 0 0 0 
1.77831e-12 0 0 1.86056e-11 0 0 0 0 0 
0 0 0 2.0267e-10 2.43316e-08 0 0 0 4.22137e-11 
0 2.25817e-11 0 0 0 0 0 0 0 
0 0 0 0 2.42548e-10 0 0 0 3.4459e-11 
0 1.36252e-11 0 2.33601e-11 0 0 0 0 6.32772e-11 
0 0 5.69287e-12 0 0 2.55736e-13 0 0 0 
0 0 0 0 0 0 0 0 3.66069e-11 
0 0 2.02022e-11 0 1.47638e-11 0 0 0 0 
0 0 4.86016e-11 0 0 0 0 0 0 
0 0 6.19081e-11 7.04126e-11 0 0 0 0 0 
1.27763e-10 9.89641e-12 0 0 0 9.32663e-11 5.46955e-11 0 0 
0 0 0 0 0 0 0 0 0 
0 1.88612e-11 0 0 0 0 0 0 0 
1.73457e-11 0 0 0 0 3.00229e-11 0 0 0 
0 0 0 0 0 0 0 0 0 
0 0 0 0 0 0 0 5.87397e-12 0 
0 0 1.63273e-11 0 0 3.56697e-11 0 0 0 
0 0 0 6.93938e-11 0 3.63233e-11 0 0 0 
0 0 0 0 0 0 4.19388e-12 0 0 
0 0 0 0 0 0 0 0 0 
0 0 0 0 0 0 0 0 0 
0 0 0 0 0 0 0 0 0 
0 0 0 0 0 0 0 0 0 
0 0 0 0 0 0 0 0 0 
0 0 0 0 1.89896e-11 1.14494e-11 0 0 5.8354e-11 
0 0 0 4.65342e-11 1.07264e-11 2.94537e-11 0 0 0 
0 0 0 0 0 0 0 0 0 
0 3.89661e-11 0 0 0 2.96987e-11 7.33946e-11 0 8.08394e-12 
0 9.30215e-12 0 0 7.93962e-12 1.93199e-11 4.71357e-11 0 0 
0 0 0 1.77975e-10 0 0 4.56331e-11 0 2.48393e-11 
0 0 0 0 0 0 0 2.13021e-11 5.48189e-11 
2.98191e-11 1.30822e-10 2.54815e-08 0 0 0 0 0 0 
2.154e-11 0 0 0 2.64883e-08 0 0 1.24003e-10 0 
0 5.55639e-12 5.24688e-11 0 2.32206e-11 1.01516e-10 1.41078e-10 0 0 
0 0 0 5.11271e-11 2.85275e-11 1.18843e-11 0 0 0 
0 0 0 1.77015e-11 0 0 0 0 0 
1.37644e-11 0 1.11967e-10 5.3681e-11 0 0 0 0 0 
0 0 0 2.52216e-08 0 0 0 2.28557e-11 0 
8.54812e-11 0 0 1.79798e-10 5.10641e-11 0 0 6.30539e-11 7.86509e-11 
0 0 2.9163e-11 0 0 3.46681e-11 0 0 0 
0 4.27349e-11 0 0 2.54395e-11 0 0 0 0 
0 0 0 0 0 0 0 2.84033e-11 0 
0 0 0 0 0 0 0 0 0 
0 0 0 0 0 0 1.04783e-11 0 0 
0 0 0 0 0 0 0 0 6.32557e-12 
0 0 0 0 0 0 0 0 0 
0 0 1.56455e-11 0 0 0 0 0 0 
0 0 0 0 0 0 0 0 0 
0 0 0 0 0 0 0 0 0 
0 0 0 0 0 0 0 0 0 
0 0 0 0 0 0 0 0 0 
0 0 0 0 0 0 0 0 0 
1.29825e-11 0 0 0 0 8.15644e-11 8.93401e-11 0 0 
0 1.87398e-11 0 0 0 0 0 0 0 
0 0 0 0 0 1.46166e-11 0 0 0 
0 0 0 0 0 0 3.85741e-11 0 0 
0 0 0 0 1.44852e-11 0 7.82372e-11 8.18368e-11 0 
0 0 1.01214e-10 8.02508e-11 5.21036e-12 0 0 0 0 
0 0 0 0 0 3.96093e-11 0 0 0 
1.31641e-10 0 0 0 1.46008e-10 0 0 0 0 
2.54632e-11 0 1.74809e-10 0 0 0 0 0 6.05727e-11 
2.77081e-11 0 7.27646e-11 2.14998e-11 0 0 2.4653e-08 0 0 
3.3068e-11 0 0 0 0 1.41948e-11 0 0 0 
0 0 4.31286e-11 0 0 8.4263e-11 7.18578e-11 0 0 
1.02482e-10 7.55238e-11 2.68206e-11 0 7.81794e-11 0 0 0 1.3835e-10 
0 0 0 3.32519e-11 0 1.71189e-10 0 0 0 
1.10098e-10 0 0 0 5.12506e-11 5.94248e-11 0 8.32589e-12 0 
0 0 7.21209e-12 3.09369e-11 0 0 0 0 0 
0 0 0 0 0 3.10792e-11 0 8.20601e-11 0 
0 0 5.41483e-11 0 7.63536e-11 0 0 0 0 
0 0 0 0 0 0 0 0 0 
0 6.90546e-12 0 0 0 0 0 0 0 
0 0 1.22712e-11 8.79467e-11 1.82481e-11 0 0 0 0 
0 5.71128e-11 0 3.38997e-11 3.03066e-11 0 0 0 1.16845e-11 
0 2.09719e-11 0 0 0 0 0 0 0 
0 0 0 0 0 0 0 0 0 
0 0 0 0 0 0 0 0 0 
0 0 0 0 0 0 0 0 0 
0 0 0 0 0 0 0 0 0 
0 0 0 0 0 0 0 0 0 
0 0 0 5.83946e-11 0 0 0 0 0 
0 0 0 4.62434e-11 4.76514e-11 0 0 0 0 
0 2.63423e-08 0 2.45042e-10 0 0 2.84272e-12 0 0 
0 1.21064e-10 4.86086e-12 0 0 0 0 0 4.06685e-11 
2.5957e-11 0 0 0 0 2.51441e-11 6.46979e-11 0 0 
0 0 0 0 1.01799e-11 0 0 0 0 
0 0 0 0 0 0 4.51234e-11 0 0 
0 0 9.5114e-11 0 3.4237e-11 0 0 0 0 
0 0 0 0 0 0 5.0041e-11 1.38114e-11 0 
0 1.22095e-10 0 0 0 0 3.64107e-10 0 0 
0 0 0 0 0 0 0 1.60399e-11 0 
0 0 0 0 0 2.18274e-10 0 0 6.0668e-11 
0 0 0 4.1855e-11 5.01201e-11 2.73794e-11 0 0 0 
1.24989e-10 0 0 0 0 2.9668e-10 2.73422e-08 2.67178e-10 0 
0 0 1.21011e-10 0 0 8.97966e-11 0 0 1.04509e-12 
1.28801e-11 0 0 0 0 1.29445e-11 0 0 0 
0 5.30529e-11 1.2049e-10 0 0 0 0 3.92371e-11 6.40233e-11 
0 0 0 0 0 0 0 8.28206e-12 0 
0 0 0 0 4.86656e-12 0 0 0 0 
0 0 0 0 3.31266e-11 0 0 0 0 
0 0 7.26549e-11 0 5.02722e-13 2.37582e-10 0 0 0 
0 0 0 5.57884e-11 0 0 0 0 0 
0 0 6.88322e-12 0 0 1.41871e-12 0 0 0 
0 0 0 0 0 0 0 0 0 
0 0 0 0 0 0 0 0 0 
0 0 0 0 0 0 0 0 0 
0 0 0 0 0 0 0 0 0 
0 0 4.17741e-12 0 0 0 0 4.01826e-11 0 
0 6.24096e-11 0 0 2.47347e-08 0 3.64012e-11 0 0 
4.03984e-11 0 3.2466e-11 0 0 0 0 1.60221e-12 0 
3.58715e-10 0 0 0 0 2.14671e-11 1.38765e-10 0 0 
1.51238e-10 0 0 0 8.08464e-11 5.88793e-12 0 0 0 
0 0 3.88845e-11 1.33796e-11 0 0 4.3276e-11 0 0 
0 0 0 2.31721e-11 0 2.79165e-11 0 2.53701e-11 0 
0 0 0 0 0 2.45579e-10 2.00041e-10 0 0 
0 2.86247e-11 6.3342e-11 9.45621e-11 0 0 1.61108e-10 0 0 
4.1352e-11 0 0 0 0 0 1.03152e-10 9.50438e-11 0 
1.405e-10 0 1.62825e-10 0 0 9.58461e-11 0 5.61009e-11 0 
0 0 2.13896e-11 0 0 0 0 0 0 
4.39932e-11 0 0 2.44644e-08 1.58774e-10 0 1.03365e-10 0 0 
0 0 0 0 0 1.0397e-10 0 0 1.48126e-10 
4.11556e-12 5.06695e-12 0 0 0 1.85384e-10 0 0 1.99063e-10 
0 0 0 0 0 0 1.61276e-10 0 3.69723e-11 
0 0 0 0 0 0 0 0 1.18742e-10 
0 0 0 6.07578e-11 1.55408e-10 0 0 0 0 
0 0 0 0 0 0 0 7.53508e-12 0 
0 0 0 0 0 0 0 0 4.82648e-12 
0 0 0 0 0 0 1.21823e-10 0 8.43664e-11 
0 0 0 2.49554e-08 0 0 0 0 7.02011e-11 
0 0 3.73949e-11 0 2.00426e-11 0 9.8312e-12 0 0 
0 1.14896e-11 0 0 0 0 0 0 0 
0 0 0 0 0 0 0 0 0 
0 0 0 0 0 0 0 0 0 
0 0 0 0 0 0 0 0 0 
0 0 0 0 0 0 0 0 0 
0 0 0 0 0 0 0 0 2.13234e-12 
0 1.76946e-10 8.43852e-11 1.17089e-10 3.14526e-11 0 0 0 0 
0 0 0 0 0 0 0 0 0 
2.22794e-10 0 0 1.04538e-11 0 1.13228e-10 1.45097e-10 4.36845e-11 0 
0 0 0 0 0 0 0 0 0 
2.85846e-11 0 0 0 0 3.37867e-11 0 6.82691e-11 0 
0 0 0 0 2.50404e-11 0 0 1.99827e-11 0 
6.69674e-11 0 0 0 1.59256e-10 0 4.28198e-11 0 0 
2.9018e-10 0 0 3.01335e-10 0 0 0 0 0 
0 0 0 4.02969e-11 0 6.00327e-11 0 0 2.30813e-10 
0 0 0 0 4.80732e-11 1.32953e-12 0 0 0 
0 0 0 0 0 0 0 0 1.76127e-11 
0 0 0 0 9.67545e-11 0 0 4.15331e-11 0 
6.84221e-11 0 0 3.45658e-11 0 0 0 0 1.03486e-10 
0 0 0 0 1.58106e-10 2.78861e-10 2.71334e-08 0 0 
0 1.36806e-11 0 0 0 6.44998e-11 0 0 0 
0 2.44454e-12 0 1.01239e-12 7.19926e-11 0 1.68358e-10 8.26904e-11 0 
0 0 0 0 0 5.39976e-11 0 0 0 
0 0 0 0 0 0 0 0 0 
0 0 0 0 0 0 1.33166e-11 0 0 
0 0 0 3.08289e-11 5.45713e-11 0 0 1.97451e-11 3.14296e-11 
0 0 0 0 0 1.1385e-11 0 6.60138e-11 4.52536e-11 
0 0 0 0 0 9.52585e-12 0 0 0 
0 1.37724e-11 0 0 0 0 0 0 0 
0 0 0 0 0 0 0 0 0 
0 0 0 0 0 0 0 0 0 
0 0 0 0 0 0 0 0 0 
0 0 0 0 0 0 0 0 0 
0 0 0 1.67721e-12 0 0 6.65216e-11 1.65875e-11 0 
1.10205e-10 2.68632e-11 3.01919e-11 0 0 0 5.92223e-12 0 1.95982e-10 
0 0 2.78305e-11 0 0 2.73948e-10 0 0 2.1288e-10 
0 0 0 0 2.68284e-08 0 0 4.13674e-11 0 
3.67996e-11 0 0 0 6.9966e-11 0 0 0 0 
0 0 0 0 0 0 0 0 0 
0 0 5.7571e-12 0 0 6.37167e-11 6.59549e-11 2.44816e-11 0 
0 0 0 0 0 0 0 0 0 
0 0 0 0 0 0 0 0 1.23079e-10 
0 1.59507e-11 1.82203e-10 1.0846e-10 7.45265e-12 0 1.6072e-11 0 0 
0 0 0 0 0 1.13929e-11 0 0 7.33015e-12 
0 0 0 9.70791e-11 0 0 0 0 3.45673e-11 
2.78557e-11 0 1.45156e-10 0 0 8.2881e-12 0 0 0 
0 8.47171e-11 0 0 0 0 0 1.18265e-10 0 
0 0 0 2.34669e-10 0 0 0 0 0 
0 0 0 0 0 4.98591e-11 0 0 0 
0 0 0 3.4827e-11 0 0 0 0 0 
0 0 0 4.72079e-11 5.80027e-11 9.46703e-11 8.20435e-11 0 0 
0 0 0 0 0 0 0 0 0 
0 0 0 3.01278e-11 0 0 0 0 0 
0 0 0 3.55755e-11 0 1.32381e-10 4.42461e-11 0 0 
0 1.94593e-10 0 0 0 0 0 0 0 
0 0 0 0 3.48805e-11 0 0 0 0 
0 0 0 0 0 0 0 0 0 
0 0 0 0 0 0 0 0 0 
0 0 0 0 0 0 0 0 0 
0 0 0 0 0 0 0 0 0 
0 0 0 0 0 0 0 0 0 
0 0 5.35386e-11 0 0 4.91704e-11 0 2.42626e-11 2.02973e-11 
0 0 0 0 0 0 0 0 0 
0 1.40481e-10 0 0 0 0 0 0 0 
0 6.24707e-11 2.54393e-10 0 0 9.2234e-11 0 0 0 
4.11785e-11 0 0 1.51576e-11 0 0 0 0 1.17803e-11 
0 0 0 0 0 0 2.93827e-11 0 6.57392e-11 
0 0 0 7.17875e-11 7.12831e-11 0 0 0 0 
1.70461e-10 0 0 3.03479e-08 0 0 0 3.48512e-08 0 
0 0 0 1.63361e-10 0 1.06017e-10 0 6.95996e-11 1.7245e-10 
1.99329e-11 2.44939e-11 7.45966e-11 0 0 0 0 6.11194e-11 0 
5.10478e-11 0 0 0 0 0 9.56467e-12 0 0 
0 0 0 0 0 0 0 0 0 
2.49445e-11 0 0 0 7.28148e-11 0 0 0 5.47741e-11 
0 0 0 1.39274e-11 0 0 0 5.65896e-11 0 
7.94248e-11 0 0 0 0 0 0 9.0406e-11 4.1776e-11 
0 0 0 0 0 0 1.52272e-10 0 0 
0 0 0 0 0 0 0 0 0 
0 0 0 0 0 7.23522e-11 6.47751e-11 0 0 
0 0 0 0 8.53951e-12 0 0 0 0 
0 3.67923e-11 0 6.04502e-11 0 0 0 0 0 
0 0 9.45072e-11 0 0 0 0 0 0 
0 0 4.79038e-11 7.1114e-11 2.37923e-11 1.0366e-10 0 5.57845e-11 1.41498e-10 
0 0 0 0 0 0 0 0 0 
0 0 0 0 0 0 0 0 0 
0 0 0 0 0 0 0 0 0 
0 0 0 0 0 0 0 0 0 
0 0 0 0 0 0 0 0 0 
0 0 0 0 0 0 0 0 0 
0 4.24849e-11 0 9.35571e-11 0 6.47312e-11 0 0 0 
0 0 0 1.16921e-10 4.09196e-11 4.32458e-11 0 9.86671e-11 0 
0 0 0 0 0 0 0 0 0 
0 0 0 0 0 1.01693e-11 0 0 0 
0 0 0 0 0 0 1.01394e-10 0 0 
0 0 8.05374e-11 0 0 0 1.05852e-11 0 0 
0 0 0 0 0 7.91831e-11 0 1.79757e-10 0 
0 0 2.48225e-10 0 0 0 0 0 0 
0 0 0 0 2.63272e-08 0 0 0 0 
0 0 0 0 0 0 0 0 0 
0 0 0 0 0 0 0 0 1.5421e-11 
0 0 0 0 1.65809e-11 0 0 0 6.09917e-11 
0 4.66868e-12 0 0 1.33942e-10 0 0 0 0 
5.85613e-11 0 0 0 0 0 1.06475e-10 0 8.42902e-11 
6.35467e-11 9.488e-11 0 0 0 0 1.2063e-10 0 0 
1.02237e-10 2.49758e-08 0 0 0 1.18346e-10 4.59116e-11 0 0 
0 1.89761e-10 0 0 0 0 2.83889e-08 0 0 
6.58922e-11 0 0 0 0 0 0 0 2.02517e-12 
0 0 0 0 0 0 0 0 0 
0 4.46687e-11 0 0 0 1.07866e-10 5.96423e-11 0 0 
1.26349e-11 0 0 0 0 0 0 0 0 
0 0 0 0 0 0 0 0 7.6031e-11 
4.50416e-11 0 0 0 0 0 0 0 0 
0 0 0 0 0 0 0 0 0 
0 0 0 0 0 0 0 0 0 
0 0 0 0 0 0 0 0 0 
0 0 0 0 0 0 0 0 0 
0 0 0 0 0 0 2.6372e-11 0 0 
0 5.98358e-11 0 0 0 0 0 9.42408e-11 0 
3.93435e-10 0 0 0 3.224e-11 7.87197e-11 0 0 0 
0 3.85894e-08 3.87877e-08 0 0 0 3.17695e-11 0 0 
0 0 7.16999e-11 1.20203e-11 0 0 0 0 0 
0 0 8.87781e-11 0 0 4.08764e-11 0 0 0 
0 0 2.25653e-11 0 0 0 0 0 0 
0 1.70455e-11 0 0 1.94082e-12 0 0 0 0 
0 0 0 0 3.34027e-08 0 0 2.16162e-10 0 
2.64533e-10 0 2.69984e-10 0 0 7.0756e-12 0 0 1.03554e-11 
0 0 0 0 0 5.33514e-11 0 0 0 
0 0 0 0 0 0 0 0 0 
0 7.89654e-11 0 0 0 0 0 0 0 
0 6.4129e-12 0 0 0 0 0 0 0 
0 0 0 1.17812e-10 0 0 0 1.66652e-10 0 
0 6.71326e-12 0 0 0 0 0 0 0 
0 7.78047e-11 8.13433e-12 0 1.0255e-10 5.18712e-11 0 2.15615e-10 0 
0 0 0 0 9.12429e-11 0 0 0 3.10434e-11 
0 0 0 0 0 0 0 0 0 
0 0 0 0 1.44197e-11 2.42168e-11 0 0 2.1051e-11 
0 0 0 0 2.64277e-10 0 0 1.37394e-10 0 
4.12338e-11 1.29068e-10 0 0 0 1.0597e-10 2.28706e-10 0 0 
0 0 0 0 0 0 0 0 1.77764e-11 
0 0 0 0 1.50153e-11 7.12167e-12 0 0 0 
0 0 0 0 0 0 0 0 0 
0 0 0 0 0 0 0 0 0 
0 0 0 0 0 0 0 0 0 
0 0 0 0 0 0 0 0 0 
0 0 0 0 2.33994e-11 0 0 0 0 
0 0 6.33887e-11 0 0 0 0 0 0 
0 1.46172e-11 0 0 4.30261e-11 0 8.34133e-11 0 0 
0 0 2.34147e-10 0 0 8.89044e-11 1.02908e-10 0 0 
0 0 3.11725e-11 0 0 0 0 0 0 
6.24038e-12 0 0 8.59434e-11 0 1.14328e-10 0 6.90452e-13 0 
0 0 0 0 0 0 0 0 0 
0 0 0 0 0 0 9.74971e-12 0 2.22677e-11 
0 4.84251e-10 0 0 0 6.40044e-11 0 2.21353e-11 0 
5.44897e-11 0 0 0 0 0 7.65534e-11 0 0 
0 9.09957e-11 0 0 5.12107e-11 0 0 4.78564e-11 0 
0 0 0 0 0 2.59734e-11 0 0 0 
0 0 0 0 9.35569e-12 0 0 0 0 
0 0 0 0 0 0 0 0 0 
0 3.5188e-11 5.10842e-11 0 0 0 0 0 0 
3.78143e-11 0 0 8.69543e-11 0 0 0 0 0 
0 0 0 0 0 2.93733e-11 0 5.70256e-11 0 
5.42416e-11 0 0 2.16634e-10 0 0 0 3.99536e-11 0 
0 0 0 0 0 0 0 0 0 
0 0 0 0 0 0 0 0 0 
1.98493e-10 1.69178e-10 2.68635e-08 0 0 1.89822e-10 0 0 0 
0 0 5.57962e-11 0 0 2.28634e-11 0 0 0 
0 0 0 1.472e-11 0 0 0 0 0 
0 0 0 0 0 0 0 0 0 
0 0 0 0 0 0 0 0 0 
0 0 0 0 0 0 0 0 0 
0 0 0 0 0 0 0 0 0 
0 0 0 0 0 0 0 0 0 
0 0 0 0 0 0 0 5.32257e-11 0 
0 2.62271e-11 0 0 0 2.68515e-08 0 3.86464e-10 1.16778e-10 
0 0 0 0 2.79147e-10 2.95199e-10 0 0 0 
5.22756e-11 1.95438e-10 0 0 1.15827e-10 0 0 0 0 
0 0 0 0 0 0 0 0 0 
0 0 0 3.52469e-11 1.02321e-10 9.86869e-11 0 3.0424e-10 0 
0 1.50619e-11 0 0 0 0 5.79179e-11 0 0 
0 0 0 1.03713e-10 1.79546e-11 0 3.90852e-11 0 0 
0 0 5.00565e-11 0 1.00715e-10 8.35288e-12 1.66803e-11 0 0 
9.39308e-11 0 1.26517e-11 1.76746e-11 0 0 0 5.94141e-11 0 
0 0 0 0 0 0 0 0 0 
0 0 0 0 2.94309e-11 0 3.9536e-11 0 0 
0 0 0 0 0 0 0 0 0 
0 0 0 0 0 0 4.36035e-11 0 0 
0 0 1.22996e-10 0 0 0 0 7.50986e-12 0 
0 0 0 0 0 5.52676e-11 0 0 1.94058e-11 
1.33538e-10 0 0 0 0 0 0 0 1.92313e-10 
2.75256e-10 0 0 0 9.583e-11 0 0 2.20195e-11 0 
1.56712e-11 0 0 0 0 0 0 0 0 
0 0 0 0 0 0 0 0 0 
1.1073e-10 8.72034e-11 6.99061e-11 0 0 0 0 0 0 
0 0 1.93907e-10 2.87197e-11 4.4305e-11 1.13132e-10 0 3.1164e-08 0 
0 0 0 0 0 0 0 0 0 
0 0 0 0 0 0 0 0 0 
0 0 0 0 0 0 0 0 0 
0 0 0 0 0 0 0 0 0 
0 0 0 0 0 0 0 0 0 
0 0 0 0 0 0 0 0 0 
0 0 0 0 0 0 0 2.40377e-10 4.30528e-11 
0 0 0 0 2.83035e-10 1.54068e-10 3.16274e-12 2.97469e-12 0 
0 3.89472e-11 0 1.89024e-10 0 0 0 0 0 
3.49715e-11 0 0 0 0 0 0 0 0 
0 0 0 0 0 0 0 1.2903e-10 0 
0 1.28378e-10 0 0 0 0 6.34284e-11 0 2.74364e-11 
1.10242e-11 0 0 5.54602e-11 0 3.66197e-11 0 0 0 
0 0 0 0 0 4.96716e-11 2.11714e-10 2.31661e-11 0 
0 0 0 2.38367e-11 0 0 0 2.21516e-11 0 
0 9.57791e-11 0 0 0 0 0 0 0 
0 5.68622e-11 1.30301e-10 0 0 0 0 0 2.16596e-11 
1.40855e-11 0 5.60718e-11 0 0 0 0 0 0 
1.20993e-10 0 0 0 0 0 0 0 9.49757e-11 
0 0 0 0 0 0 0 0 0 
0 0 0 0 0 0 3.95952e-11 8.06956e-11 0 
1.69406e-11 1.05683e-10 0 0 0 0 0 0 0 
1.00194e-10 0 0 0 0 0 0 0 0 
0 2.65268e-08 0 0 0 0 0 4.77495e-11 0 
0 0 0 0 0 0 0 0 0 
2.39274e-11 0 0 0 1.16697e-10 0 0 0 3.27029e-10 
0 0 0 1.44047e-10 0 0 0 0 0 
0 0 8.03548e-11 0 0 0 0 0 0 
0 0 0 4.40256e-11 0 0 0 0 0 
0 0 0 0 0 0 0 0 0 
0 0 0 0 0 0 0 0 0 
0 0 0 0 0 0 0 0 0 
0 0 0 0 0 0 0 0 0 
0 0 0 0 0 9.68485e-12 0 0 0 
0 0 0 0 0 0 1.29342e-10 0 0 
0 7.28959e-11 8.16794e-11 0 0 0 0 0 0 
0 0 0 0 0 0 0 1.26588e-11 0 
0 0 0 7.26919e-11 0 0 6.48128e-12 2.49967e-11 0 
0 0 0 0 0 0 0 0 0 
0 0 2.63188e-10 2.72026e-08 0 0 0 0 0 
0 0 0 0 0 0 0 5.18136e-11 7.75714e-12 
5.07806e-11 0 8.12205e-11 0 0 1.68775e-13 0 0 0 
0 0 0 0 0 0 0 0 0 