# vtk DataFile Version 5.1
vtk output
ASCII
DATASET STRUCTURED_POINTS
DIMENSIONS 250 250 1
SPACING 1 1 1
ORIGIN 0 0 0
POINT_DATA 62500
FIELD FieldData 6
feature_1 1 62500 float
0 0 0 0 0 0 0 0 0 
0 0 0 0 0 0 0 0 0 
0 0 0 0 0 0 0 0 0 
0 0 0 0 0 0 0 0 0 
0 0 0 0 0 0 0 0 0 
0 0 0 0 0 0 0 0 0 
0 0 0 0 0 0 0 0 0 
0 0 0 0 0 0 0 0 0 
0 0 0 0 0 0 0 0 0 
0 0 0 0 0 0 0 0 0 
0 0 0 0 0 0 0 0 0 
0 0 0 0 0 0 0 0 0 
0 0 0 0 0 0 0 0 0 
0 0 0 0 0 0 0 0 0 
0 0 0 0 0 0 0 0 0 
0 0 0 0 0 0 0 0 0 
0 0 0 0 0 0 0 0 0 
0 0 0 0 0 0 0 0 0 
0 0 0 0 0 0 0 0 0 
0 0 0 0 0 0 0 0 0 
0 0 0 0 0 0 0 0 0 
0 0 0 0 0 0 0 0 0 
0 0 0 0 0 0 0 0 0 
0 0 0 0 0 0 0 0 0 
0 0 0 0 0 0 0 0 0 
0 0 0 0 0 0 0 0 0 
0 0 0 0 0 0 0 0 0 
0 0 0 0 0 0 0 0 0 
0 0 0 0 0 0 0 0 0 
0 0 0 0 0 0 0 0 1.88663e-13 
0 0 0 0 0 0 0 0 0 
0 0 0 0 0 0 0 0 0 
0 0 0 0 0 0 0 0 0 
0 0 0 0 0 0 0 0 0 
0 0 0 0 0 0 0 0 0 
0 0 0 0 0 0 0 0 0 
0 0 0 0 0 0 0 0 0 
0 0 0 0 0 0 0 0 0 
0 0 0 0 0 0 0 0 0 
0 0 0 0 0 0 0 0 3.0001e-13 
0 0 0 0 0 0 0 0 0 
0 0 0 0 0 0 0 0 0 
0 0 0 0 0 0 0 0 0 
0 0 0 0 0 0 0 0 0 
0 0 0 0 0 0 0 0 0 
0 0 0 0 0 0 0 0 0 
0 0 0 0 0 0 0 0 0 
0 0 0 0 0 0 0 0 0 
0 0 0 0 0 0 0 0 0 
0 0 0 0 0 0 0 0 0 
0 0 0 0 0 0 0 0 0 
0 0 0 0 0 0 0 0 0 
0 0 0 0 0 0 0 0 0 
0 0 0 0 0 0 0 0 0 
0 0 0 0 0 0 0 0 0 
0 0 0 0 0 0 0 0 0 
0 0 0 0 0 0 0 0 0 
0 0 0 0 0 0 0 0 0 
0 0 0 0 0 0 0 0 0 
0 0 0 0 0 0 0 0 0 
0 0 0 0 7.08235e-13 0 0 0 0 
0 0 0 0 0 0 0 0 0 
0 0 0 0 0 0 0 0 0 
0 0 0 0 0 0 0 0 0 
0 0 0 0 0 0 0 0 0 
0 0 0 0 0 0 0 0 0 
0 0 0 0 0 0 0 0 0 
0 0 0 0 0 0 0 0 0 
0 0 0 0 0 0 0 0 0 
0 0 0 0 0 0 0 0 0 
0 0 0 0 0 0 0 0 0 
0 0 0 0 0 0 0 0 0 
0 0 0 0 0 0 0 0 0 
0 0 0 0 0 0 0 0 0 
0 0 0 0 0 0 0 0 0 
0 0 0 0 0 0 0 0 0 
0 0 0 0 0 0 0 0 0 
0 0 0 0 0 0 0 0 0 
0 0 0 0 0 0 0 0 0 
0 0 0 0 0 0 0 0 0 
0 0 0 0 0 0 0 0 0 
0 0 0 0 0 0 0 0 0 
0 0 0 0 0 0 0 0 0 
0 0 0 0 0 0 0 0 0 
0 0 0 0 0 0 0 0 0 
0 0 0 0 0 0 0 0 0 
0 0 0 0 0 0 0 0 0 
0 0 0 0 0 0 0 0 0 
0 0 0 0 0 0 0 0 0 
0 0 0 0 0 0 0 0 0 
0 0 0 0 0 0 0 0 0 
0 0 0 0 0 0 0 0 0 
0 0 0 0 0 0 0 0 0 
0 0 0 0 0 0 0 0 0 
0 0 0 0 0 0 0 0 0 
0 0 0 0 0 0 0 0 0 
0 0 0 0 0 0 0 0 0 
0 0 0 0 0 0 0 0 0 
0 0 0 0 0 0 0 0 0 
0 0 0 0 0 0 0 0 0 
0 0 0 0 0 0 0 0 0 
0 0 0 0 0 0 0 0 0 
0 0 0 0 0 0 0 0 0 
0 0 0 0 0 0 0 0 0 
0 0 0 0 0 0 0 0 0 
0 0 0 0 0 0 0 0 0 
0 0 0 0 0 0 0 0 0 
0 0 0 0 0 0 0 0 0 
0 0 0 0 0 0 0 0 0 
0 0 0 0 0 0 0 0 0 
0 0 0 0 0 0 0 0 0 
0 0 0 0 0 0 0 0 0 
0 0 0 0 0 0 0 0 0 
0 0 0 0 0 0 0 0 0 
0 0 0 0 0 0 0 0 0 
0 0 0 0 0 0 0 0 0 
0 0 0 0 0 0 0 0 0 
0 0 0 0 0 0 0 0 0 
0 0 0 0 0 0 0 0 0 
0 0 0 0 0 0 0 0 0 
0 0 0 0 0 0 0 0 0 
0 0 0 0 0 0 0 0 0 
0 0 0 0 0 0 0 0 0 
0 0 0 0 0 0 0 0 0 
0 0 0 0 0 0 0 0 0 
0 0 0 0 0 0 0 0 0 
0 0 0 0 0 0 0 0 0 
0 0 0 0 0 0 0 0 0 
0 0 0 0 0 0 0 0 0 
0 0 0 0 0 0 0 0 0 
0 0 0 0 0 0 0 0 0 
0 0 0 0 0 0 0 0 0 
0 0 0 0 0 0 0 0 0 
0 0 0 0 0 6.39701e-14 0 0 0 
0 0 0 0 0 0 0 0 0 
0 0 0 0 0 0 0 3.23176e-13 0 
0 0 0 0 0 0 0 0 0 
0 0 0 0 0 0 0 0 0 
0 0 0 0 0 0 0 0 0 
0 0 0 0 0 0 0 0 0 
0 0 0 0 0 0 0 0 0 
0 0 0 0 0 0 0 0 0 
0 0 0 0 0 0 0 0 0 
0 0 0 0 0 0 0 0 0 
0 0 0 0 0 0 0 0 0 
0 0 0 0 0 0 0 0 0 
0 0 0 0 0 0 0 0 0 
0 0 0 0 0 0 0 0 0 
0 0 0 0 0 0 0 0 0 
0 0 0 0 0 0 0 0 0 
0 0 0 0 0 0 0 0 0 
0 0 0 0 0 0 0 0 0 
0 0 0 0 0 0 0 0 0 
0 0 0 0 0 0 0 0 0 
0 0 0 0 0 0 0 0 0 
0 0 0 0 0 0 0 0 0 
0 0 0 0 0 0 0 0 0 
0 0 0 0 0 0 0 0 0 
0 0 0 0 0 0 0 0 0 
0 0 0 0 0 0 0 0 0 
0 0 0 0 0 0 0 0 0 
0 0 0 0 0 0 0 0 0 
0 0 0 0 0 0 0 0 0 
0 0 0 0 0 0 0 0 0 
0 0 0 0 0 0 0 0 0 
0 0 0 0 0 0 0 0 0 
0 0 0 0 0 0 0 0 0 
0 0 0 0 0 0 0 0 0 
0 0 0 0 0 0 0 0 0 
0 0 0 0 0 0 0 0 0 
0 0 0 0 0 0 0 0 0 
0 0 0 0 0 0 0 0 0 
0 0 0 0 0 0 0 0 0 
0 0 0 0 0 0 0 0 0 
0 0 0 0 0 0 0 0 0 
0 0 0 0 0 0 0 0 0 
0 0 0 0 0 0 0 0 0 
0 0 0 0 0 0 0 0 0 
0 0 0 0 0 0 0 0 0 
0 0 0 0 0 0 0 0 0 
0 0 0 0 0 0 0 0 0 
0 0 0 0 0 0 0 0 0 
0 0 0 0 0 0 0 0 0 
0 0 0 0 0 0 0 0 0 
0 0 0 0 0 0 0 0 0 
0 0 0 0 0 0 0 0 0 
0 0 0 0 0 0 0 0 0 
0 0 0 0 0 0 0 0 0 
0 0 0 0 0 0 0 0 0 
0 0 0 0 0 0 0 0 0 
0 0 0 0 0 0 0 0 0 
0 0 0 0 0 0 0 0 0 
0 0 0 0 0 0 0 0 0 
0 0 0 0 0 0 0 0 0 
0 0 0 0 0 0 0 0 0 
0 0 0 0 0 0 0 0 0 
0 0 0 0 0 0 0 0 0 
0 0 0 0 0 0 0 0 0 
0 0 0 0 0 0 0 0 0 
0 0 0 0 0 0 0 0 0 
0 0 0 0 0 0 0 0 0 
0 0 0 0 0 0 0 0 0 
0 0 0 0 0 0 0 0 0 
0 0 0 0 0 0 0 0 0 
0 0 0 0 0 0 0 0 0 
0 0 0 0 0 0 0 0 0 
0 0 0 0 0 0 0 0 0 
0 0 0 0 0 0 0 0 0 
0 0 0 0 0 0 0 0 0 
0 0 0 0 0 0 0 0 0 
0 0 0 0 0 0 0 0 0 
0 0 0 0 0 0 0 0 0 
0 0 0 0 0 0 0 0 0 
0 0 0 0 0 0 0 0 0 
0 0 0 0 0 0 0 0 0 
0 0 0 0 0 0 0 0 0 
0 0 0 0 0 0 0 0 0 
0 0 0 0 0 0 0 0 0 
0 0 0 0 0 0 0 0 0 
0 0 0 0 0 0 0 0 0 
0 0 0 0 0 0 0 0 0 
0 0 0 0 0 0 0 0 0 
0 0 0 0 0 0 0 0 0 
0 0 0 0 0 0 0 0 0 
0 0 0 0 0 0 0 0 0 
0 0 0 0 0 0 0 0 0 
0 0 0 0 0 0 0 0 0 
0 0 0 0 0 0 0 0 0 
0 0 1.04316e-12 0 0 0 0 0 0 
0 0 0 0 0 0 0 0 0 
0 0 0 0 0 0 0 0 0 
0 0 0 0 0 0 0 0 0 
0 0 0 0 0 0 0 0 0 
0 0 0 0 0 0 0 0 0 
0 0 0 0 0 0 0 0 0 
0 0 0 0 0 0 0 0 0 
0 0 0 0 0 0 0 0 0 
0 0 0 0 0 0 0 0 0 
0 0 0 0 0 0 0 0 0 
0 0 0 0 0 0 0 0 0 
0 0 0 0 0 0 0 0 0 
0 0 0 0 0 0 0 0 0 
0 0 0 0 0 0 0 0 0 
0 0 0 0 0 0 0 0 0 
0 0 0 0 0 0 0 0 0 
0 0 0 0 0 0 0 0 0 
0 0 0 0 0 0 0 0 0 
0 0 0 0 0 0 0 0 0 
0 0 0 0 0 0 0 0 0 
0 1.001e-13 0 0 0 0 0 0 0 
0 0 0 0 0 0 0 0 0 
0 0 0 0 0 0 0 0 0 
0 0 0 0 0 0 0 0 0 
0 0 0 0 0 0 0 0 0 
0 0 0 0 0 0 0 0 0 
0 0 0 0 0 0 0 0 0 
0 0 0 0 0 0 0 0 0 
0 0 0 0 0 0 0 0 0 
0 0 0 0 0 0 0 0 0 
0 0 0 0 0 0 0 0 0 
0 0 0 0 0 0 0 0 0 
0 0 0 0 0 0 0 0 0 
0 0 0 0 0 0 0 0 0 
0 0 0 0 0 0 0 0 0 
0 0 0 0 0 0 0 0 0 
0 0 0 0 0 0 0 0 0 
0 0 0 0 0 0 0 0 0 
0 0 0 0 0 0 0 0 0 
0 0 0 0 0 0 0 0 0 
0 0 0 0 0 0 0 0 0 
0 0 0 0 0 0 0 0 0 
0 0 0 0 0 0 0 0 0 
0 0 0 0 0 0 0 0 0 
0 0 0 0 0 0 0 0 0 
0 0 0 0 0 0 0 0 0 
0 0 0 0 0 0 0 0 0 
0 0 0 0 0 0 0 0 0 
0 0 0 0 0 0 0 0 0 
0 0 0 0 0 0 0 0 0 
0 0 0 0 0 0 0 0 0 
0 0 0 0 0 0 0 0 0 
0 0 0 0 0 0 0 0 0 
0 0 0 0 0 0 0 0 0 
0 0 0 0 0 0 0 0 0 
0 0 0 0 0 0 0 0 0 
0 0 0 0 0 0 0 0 0 
0 0 0 0 0 0 0 0 0 
0 0 0 0 0 0 0 0 0 
0 0 0 0 0 0 0 0 0 
0 0 0 0 0 0 0 0 0 
0 0 0 0 0 0 0 0 0 
0 0 0 0 0 0 0 0 0 
0 0 0 0 0 0 0 0 0 
0 0 0 0 0 0 0 0 0 
0 0 0 0 0 0 0 0 0 
0 0 0 0 0 0 0 0 0 
0 0 0 0 0 0 0 0 0 
0 0 0 0 0 0 0 0 0 
0 0 0 0 0 0 0 0 0 
0 0 0 0 0 0 0 0 0 
0 0 0 0 0 0 0 0 0 
0 0 0 0 0 0 0 0 0 
0 0 0 0 0 0 0 0 0 
0 0 0 0 0 0 0 0 0 
0 0 0 0 0 0 0 0 0 
0 0 0 0 0 0 0 0 0 
0 0 0 0 0 0 0 0 0 
0 0 0 0 0 0 0 0 0 
0 0 0 0 0 0 0 0 0 
0 0 0 0 0 0 0 0 0 
8.82596e-13 0 0 0 0 0 0 0 0 
0 0 0 0 0 0 0 0 0 
0 0 0 0 0 0 0 0 0 
0 0 0 0 0 0 0 0 0 
0 0 0 0 0 0 0 0 0 
0 0 0 0 0 0 0 0 0 
0 0 0 0 0 0 0 0 0 
0 0 0 0 0 0 0 0 0 
0 0 0 0 0 0 0 0 0 
0 0 0 0 0 0 0 0 0 
0 0 0 0 0 0 0 0 0 
0 0 0 0 0 0 0 0 0 
0 0 0 0 0 0 0 0 0 
0 0 0 0 0 0 0 0 0 
0 0 0 0 0 0 0 0 0 
0 0 0 0 0 0 0 0 0 
0 0 0 0 0 0 0 0 0 
0 0 0 0 0 0 0 0 0 
1.03384e-12 0 0 0 0 0 0 0 0 
0 0 0 0 0 0 0 0 0 
0 0 0 0 0 0 0 0 0 
0 0 0 0 0 0 0 0 0 
0 0 0 0 0 0 0 0 0 
0 0 0 0 0 0 0 0 0 
0 0 0 0 0 0 0 0 0 
0 0 0 0 0 0 0 0 0 
0 0 0 0 0 0 0 0 0 
0 0 0 0 0 0 0 0 0 
0 0 0 0 0 0 0 0 0 
0 0 0 0 0 0 0 0 0 
0 0 0 0 0 0 0 0 0 
0 0 0 0 0 0 0 0 0 
0 0 0 0 0 0 0 0 0 
0 0 0 0 0 0 0 0 0 
0 0 0 0 0 0 0 0 0 
0 0 0 0 0 0 0 0 0 
0 0 0 0 0 0 0 0 0 
0 0 0 0 0 0 0 0 0 
0 0 0 0 0 0 0 0 0 
0 0 0 0 0 0 0 0 0 
0 0 0 0 0 0 0 0 0 
0 0 0 0 0 0 0 0 0 
0 0 0 0 0 0 0 0 0 
0 0 0 0 0 0 0 0 0 
0 0 0 0 0 0 0 0 0 
0 0 0 0 0 0 0 0 0 
0 0 0 0 0 0 0 0 0 
0 0 0 0 0 0 0 0 0 
0 0 0 0 0 0 0 0 0 
0 0 0 0 0 0 0 0 0 
0 0 0 0 0 0 0 0 0 
0 0 0 0 0 0 0 0 0 
0 0 0 0 0 0 0 0 0 
0 0 0 0 0 0 0 0 0 
0 0 0 0 0 0 0 0 0 
0 0 0 0 0 0 0 0 0 
0 0 0 0 0 0 0 0 0 
0 0 0 0 0 0 0 0 0 
0 0 0 0 0 0 0 0 0 
0 0 0 0 0 0 0 0 0 
0 0 0 0 0 0 0 0 0 
0 0 0 0 0 0 0 0 0 
0 0 0 0 0 0 0 0 0 
0 0 0 0 0 0 0 0 0 
0 0 0 0 0 0 0 0 0 
0 0 0 0 0 0 0 0 0 
0 0 0 0 0 0 0 0 0 
0 0 0 0 0 0 0 0 0 
0 0 0 0 0 0 0 0 0 
2.99434e-13 0 0 0 0 0 0 0 0 
0 0 0 0 0 0 0 0 0 
0 0 0 0 0 0 0 0 0 
0 0 0 0 0 0 0 0 0 
0 0 0 0 0 0 0 0 0 
0 0 0 0 0 0 0 0 0 
0 0 0 0 0 0 0 0 0 
0 0 0 0 0 0 0 0 0 
0 0 0 0 0 0 0 0 0 
0 0 0 0 0 0 0 0 0 
0 0 0 0 0 0 0 0 0 
0 0 0 0 0 0 0 0 0 
0 0 0 0 0 0 0 0 0 
0 0 1.64306e-13 0 0 0 0 0 0 
0 0 0 0 0 0 0 0 0 
0 0 0 0 0 0 0 0 0 
0 0 0 0 0 0 0 0 0 
0 0 0 0 0 0 0 0 0 
0 0 0 0 0 0 0 0 0 
0 0 0 0 0 0 0 0 0 
0 0 0 0 0 0 0 0 0 
0 0 0 0 0 0 0 0 0 
0 0 0 0 0 0 0 0 0 
0 0 0 0 0 0 0 0 0 
0 0 0 0 0 0 0 0 0 
0 0 0 0 0 0 0 0 0 
0 0 0 0 0 0 0 0 0 
0 0 0 0 0 0 0 0 0 
0 0 0 0 0 0 0 0 0 
0 0 0 0 0 0 0 0 0 
0 0 0 0 0 0 0 0 0 
0 0 0 0 0 0 0 0 0 
0 0 0 0 0 0 0 0 0 
0 0 0 0 0 0 0 0 0 
0 0 0 0 0 0 0 0 0 
0 0 0 0 0 0 0 0 0 
0 0 0 0 0 0 0 0 0 
0 0 0 0 0 0 0 0 0 
0 0 0 0 0 0 0 0 0 
0 0 0 0 0 0 0 0 0 
0 0 0 0 0 0 0 0 0 
0 0 0 0 0 0 0 0 0 
0 0 0 0 0 0 0 0 0 
0 0 0 0 0 0 0 0 0 
0 0 0 0 0 0 0 0 0 
0 0 0 0 0 0 0 0 0 
0 0 0 0 0 0 0 0 0 
0 0 0 0 0 0 0 0 0 
0 0 0 0 0 0 0 0 0 
0 0 0 0 0 0 0 0 0 
0 0 0 0 0 0 0 0 0 
0 0 0 0 0 0 0 0 0 
0 0 0 0 0 0 0 0 0 
0 0 0 0 0 0 0 0 0 
0 0 0 0 0 0 0 0 0 
0 0 0 0 0 0 0 0 0 
0 0 0 0 0 0 0 0 0 
0 0 0 0 0 0 0 0 0 
0 0 0 0 0 0 0 0 0 
0 0 0 0 0 0 0 0 0 
0 0 0 0 0 0 0 0 0 
0 0 0 0 0 0 0 0 0 
0 0 0 0 0 0 0 0 0 
0 0 0 0 0 0 0 0 0 
0 0 0 0 0 0 0 0 0 
0 0 1.23728e-12 0 0 0 0 0 0 
0 0 0 0 0 0 0 0 0 
0 0 0 0 0 0 0 0 0 
0 0 0 3.79253e-12 0 0 0 0 0 
0 0 0 0 0 0 0 0 0 
0 0 0 0 0 0 0 0 0 
0 0 0 0 0 0 0 0 0 
0 0 0 0 0 0 0 0 0 
6.04397e-13 0 0 0 0 0 0 0 0 
0 0 0 0 0 0 0 0 0 
0 0 0 0 0 0 0 0 2.58268e-12 
0 0 0 0 0 0 0 0 0 
0 0 0 0 0 0 0 0 0 
0 0 0 0 0 0 0 0 0 
0 0 0 0 0 0 0 0 0 
0 0 0 0 0 0 0 0 0 
0 0 0 0 7.50652e-12 0 0 0 0 
0 0 0 0 0 0 0 0 0 
0 0 0 0 0 0 0 0 0 
0 0 0 0 0 0 0 0 0 
0 0 0 0 0 0 0 0 0 
0 0 0 0 0 0 0 0 0 
0 0 0 0 0 0 0 0 0 
0 0 0 0 0 0 0 0 0 
0 0 0 0 0 0 0 0 0 
0 0 0 0 0 0 0 0 0 
0 0 0 0 0 0 0 0 0 
0 0 0 0 0 0 0 0 0 
0 0 0 0 0 0 0 0 0 
0 0 0 0 0 0 0 0 0 
0 0 0 0 0 0 0 0 0 
0 0 0 0 0 0 0 0 0 
0 0 0 0 0 0 0 0 0 
0 0 0 0 0 0 0 0 0 
0 0 0 0 0 0 0 0 0 
0 0 0 0 0 0 0 0 0 
0 5.92434e-12 0 0 0 0 0 0 0 
0 0 0 0 0 0 0 0 0 
0 0 0 0 0 0 0 0 0 
0 0 0 0 0 0 0 0 0 
0 0 0 0 0 0 0 0 0 
0 0 0 0 0 0 0 0 0 
0 0 0 0 0 0 0 0 0 
0 0 0 0 0 0 0 0 0 
0 0 0 0 0 0 0 0 0 
0 0 0 0 0 0 0 0 0 
0 0 0 0 0 0 0 0 0 
0 0 0 0 0 0 0 0 0 
0 0 0 0 0 0 0 0 0 
0 0 0 0 0 0 0 0 0 
0 0 0 0 0 0 0 0 0 
0 0 0 0 0 0 0 0 0 
0 0 0 0 0 0 0 0 0 
0 0 0 0 0 0 0 0 0 
0 0 0 0 0 0 0 0 0 
0 0 0 0 0 0 0 0 0 
0 0 0 0 0 0 0 0 0 
0 0 0 0 0 0 0 0 0 
0 0 0 0 0 0 0 0 0 
0 0 0 0 0 0 0 0 0 
0 0 0 0 0 0 0 0 0 
0 0 0 0 0 0 0 0 0 
0 0 0 0 1.1058e-12 0 0 0 0 
0 0 0 0 0 0 0 0 1.01733e-11 
0 0 0 0 0 0 0 0 0 
0 0 0 0 0 0 0 0 0 
0 0 0 7.22665e-12 0 0 0 1.17628e-12 0 
0 0 0 0 0 0 0 0 0 
0 0 0 9.45605e-12 0 0 0 0 0 
0 0 0 0 0 0 0 0 0 
0 0 0 0 0 0 0 0 0 
0 0 4.27605e-12 0 0 0 0 0 0 
0 0 0 0 0 0 0 0 0 
0 0 0 0 0 0 0 0 0 
0 0 0 0 0 0 0 0 0 
0 0 0 0 0 0 0 0 0 
0 0 0 0 0 0 0 0 0 
0 0 0 0 0 0 0 0 0 
0 0 0 0 0 0 0 0 0 
0 0 0 0 0 0 0 0 0 
0 0 0 0 0 0 0 0 0 
0 0 0 0 0 0 0 0 0 
2.10828e-12 0 0 0 0 0 0 0 0 
0 0 0 0 0 0 0 0 0 
0 0 0 0 0 0 0 0 0 
0 0 0 0 0 0 0 0 0 
0 0 0 0 0 0 0 0 0 
0 0 0 0 0 0 0 0 0 
0 0 0 0 0 0 0 0 0 
0 0 0 0 0 0 0 0 0 
0 0 0 0 0 5.75454e-12 0 0 0 
0 0 0 0 0 0 0 0 0 
0 0 0 0 0 0 0 0 0 
0 0 0 0 0 0 0 0 2.47985e-12 
0 0 0 0 0 0 0 0 0 
0 0 0 0 0 0 0 0 0 
0 0 0 0 0 0 0 7.27363e-12 0 
0 0 0 0 0 0 0 0 0 
0 0 0 0 0 0 0 0 0 
0 0 0 0 0 0 0 0 0 
0 0 0 0 0 2.23415e-12 0 0 0 
0 0 0 0 0 0 0 0 0 
1.2484e-12 0 0 0 0 0 0 0 0 
0 0 0 0 0 0 0 0 0 
0 0 0 0 0 0 0 0 0 
0 0 0 0 0 0 0 0 0 
0 0 0 0 0 0 0 0 0 
0 0 0 0 0 0 0 0 0 
0 0 0 0 0 0 0 0 0 
0 0 0 0 0 0 0 0 0 
0 0 0 0 0 0 0 0 0 
0 0 0 0 0 0 0 0 0 
0 0 0 0 0 0 0 0 0 
0 0 0 0 0 0 0 0 0 
0 0 0 0 0 0 0 0 0 
0 0 0 0 0 0 0 0 0 
0 0 0 0 0 0 0 0 0 
0 0 0 0 0 0 0 0 0 
0 0 0 0 0 0 0 0 0 
2.17268e-11 1.13406e-12 0 0 2.40313e-11 8.79625e-12 0 0 0 
0 0 0 0 0 0 0 0 0 
0 1.82096e-11 0 0 0 0 0 0 1.62505e-11 
0 0 0 0 0 0 0 0 0 
0 0 0 0 0 0 0 0 0 
0 0 0 0 0 0 0 0 0 
0 0 0 0 0 0 0 0 0 
0 0 0 0 0 0 0 0 0 
0 0 0 0 0 0 0 0 0 
0 0 0 0 0 0 0 0 0 
0 0 0 0 0 0 0 0 0 
0 0 0 0 0 0 0 0 0 
0 0 0 0 0 0 0 0 0 
0 0 0 0 0 0 0 0 0 
0 0 0 0 0 0 0 0 0 
0 5.995e-12 0 0 0 0 0 0 0 
0 0 0 0 0 0 0 0 0 
0 0 0 0 0 0 0 0 0 
0 0 0 0 0 0 0 0 0 
0 0 0 0 0 0 0 0 0 
0 4.36333e-13 0 0 0 0 6.77049e-13 0 0 
0 0 0 0 0 0 0 0 0 
0 0 0 0 0 0 0 0 0 
0 0 0 0 0 8.54469e-13 0 0 0 
0 0 0 0 0 0 0 0 0 
0 0 0 0 0 0 0 0 0 
0 0 6.81429e-12 0 0 0 0 0 0 
0 0 0 0 0 1.67348e-11 1.67023e-11 0 0 
0 0 0 0 0 0 0 0 0 
0 0 2.75541e-12 0 0 0 0 0 0 
0 0 0 0 0 0 0 0 0 
9.20331e-12 0 0 0 0 1.7967e-11 0 0 0 
0 0 0 0 0 1.50956e-11 0 0 0 
0 0 0 0 0 0 0 0 0 
0 0 0 0 0 0 0 0 0 
0 0 0 0 0 0 0 0 0 
0 0 0 0 0 1.14375e-11 0 1.57304e-11 0 
0 0 0 0 0 0 0 0 0 
0 0 0 0 0 0 0 0 0 
0 0 0 0 0 0 0 0 0 
0 0 0 0 0 0 0 0 0 
0 0 0 0 0 0 0 0 0 
0 0 0 0 0 0 0 0 0 
0 0 0 0 0 0 0 5.55232e-12 0 
0 0 0 0 0 0 0 0 0 
0 0 0 0 0 0 0 0 0 
0 0 0 0 0 0 0 0 0 
0 0 0 0 0 0 0 0 0 
0 0 0 0 0 0 0 0 0 
0 0 0 0 0 0 0 0 0 
0 0 0 0 0 0 0 0 0 
0 0 0 0 0 0 0 0 0 
0 0 0 0 0 0 0 0 0 
0 0 0 0 0 0 0 0 9.55243e-13 
0 0 0 0 0 0 0 0 0 
0 0 0 0 0 1.65182e-11 0 2.2956e-11 0 
0 0 0 0 0 0 0 0 0 
0 0 0 0 2.89903e-11 0 3.36607e-11 0 0 
9.97389e-12 0 0 0 0 0 0 0 0 
3.27911e-11 0 0 2.21509e-12 0 0 0 0 0 
0 1.89453e-11 2.477e-11 0 0 0 0 0 0 
0 0 0 0 0 0 0 0 0 
0 0 0 0 4.79799e-12 0 0 0 0 
0 0 0 0 0 0 6.70579e-12 0 0 
0 0 0 0 0 0 0 0 0 
0 0 0 0 0 0 0 0 0 
0 0 0 0 0 0 0 0 0 
0 0 0 0 0 0 0 0 0 
0 0 0 0 0 0 0 0 0 
0 0 0 0 0 0 0 0 0 
0 0 0 0 0 0 0 0 0 
0 0 7.63502e-12 0 0 0 0 0 0 
0 0 0 0 0 0 0 0 0 
0 0 0 0 0 0 0 0 0 
0 0 0 0 0 0 0 0 0 
0 0 0 0 0 0 0 0 0 
0 0 0 0 0 0 0 0 0 
0 0 0 0 0 0 0 0 0 
0 0 0 0 3.48919e-12 0 0 0 0 
0 0 0 0 0 0 0 0 0 
0 0 0 0 0 0 0 0 0 
0 0 1.1531e-11 1.43246e-11 0 0 0 1.00014e-11 0 
0 0 0 0 0 0 0 0 0 
0 2.4751e-11 0 6.76703e-12 0 0 0 0 0 
0 0 9.897e-12 0 0 0 0 0 0 
0 0 0 0 0 0 0 0 0 
0 0 0 0 0 0 0 9.00306e-12 0 
0 0 0 0 4.61568e-12 0 0 0 0 
0 3.26094e-11 0 0 0 0 0 0 0 
7.70454e-12 0 0 0 0 0 0 0 0 
0 0 0 0 0 0 0 0 0 
7.83062e-12 0 0 0 0 0 0 6.08397e-12 0 
0 0 0 0 0 0 1.32659e-11 0 0 
0 0 0 0 0 0 0 0 0 
0 0 0 0 0 0 0 0 0 
0 0 0 0 0 0 0 0 0 
0 0 0 0 0 0 0 0 0 
0 0 0 0 0 0 0 0 0 
0 0 0 0 0 0 0 0 8.63917e-12 
0 0 0 1.42703e-11 0 0 0 0 0 
0 0 0 0 0 0 0 0 0 
0 0 0 0 0 0 0 0 0 
0 0 0 0 0 0 0 0 0 
0 0 0 0 0 0 0 0 0 
0 0 0 0 0 0 0 0 0 
0 0 0 0 0 0 0 0 0 
0 0 0 0 0 0 0 0 0 
0 0 0 0 0 0 0 0 0 
0 0 0 0 0 0 0 0 0 
0 0 0 0 0 0 0 0 0 
0 0 7.40895e-12 1.53797e-11 0 1.25795e-11 0 0 0 
4.04774e-11 0 3.70041e-11 0 0 0 0 0 0 
2.23084e-11 0 0 0 0 0 0 0 0 
0 2.40968e-11 0 0 0 0 0 5.23262e-11 0 
0 0 0 0 0 0 0 4.15797e-13 0 
0 0 0 0 0 0 0 0 0 
4.18561e-11 0 0 3.88202e-12 0 1.17381e-11 0 0 0 
0 0 0 0 0 0 9.84405e-12 0 0 
0 0 0 0 0 0 0 0 0 
2.74465e-11 0 0 0 0 0 0 0 0 
0 0 0 0 0 0 0 0 0 
0 0 0 1.04971e-11 0 0 1.78367e-11 0 0 
0 0 0 0 0 0 0 0 0 
0 0 0 0 0 0 0 0 0 
0 0 0 0 0 0 0 0 0 
0 0 0 0 0 0 0 0 0 
0 0 0 2.1732e-12 0 0 0 0 0 
0 0 0 0 0 0 0 0 0 
7.25947e-12 0 0 0 0 0 0 0 0 
0 0 0 0 0 0 0 0 0 
0 0 0 0 0 0 0 0 0 
0 0 0 0 0 0 0 0 0 
0 0 0 0 0 0 0 0 0 
0 0 0 0 0 0 0 0 0 
0 0 0 0 0 0 0 0 0 
0 0 0 0 0 0 9.48528e-12 0 0 
2.40038e-11 0 3.55529e-11 0 0 0 0 0 0 
0 0 0 0 0 0 0 0 0 
0 0 0 0 2.18914e-11 0 2.70591e-11 0 0 
2.79281e-11 2.83986e-11 0 0 0 4.21319e-11 0 0 0 
0 0 0 0 0 0 0 0 0 
0 0 0 2.43904e-11 7.35495e-11 0 0 2.79382e-11 0 
4.83714e-11 0 0 0 0 0 0 0 0 
0 3.00997e-11 0 5.42992e-11 0 0 0 0 0 
0 0 0 0 1.1951e-11 0 0 0 1.95119e-11 
0 0 0 0 0 0 0 0 0 
0 0 0 0 0 0 0 0 0 
0 0 0 5.55877e-11 2.09829e-11 0 0 0 0 
0 0 0 0 1.00754e-11 0 0 0 0 
0 9.90179e-12 0 0 0 0 0 0 0 
0 0 1.24826e-11 0 0 0 0 0 0 
0 0 0 0 0 0 0 0 0 
0 0 0 0 0 0 0 0 0 
0 0 0 0 0 0 0 0 0 
0 0 0 0 0 0 0 0 3.25236e-11 
0 0 0 0 0 0 0 0 0 
0 0 0 0 0 0 0 0 0 
0 0 0 0 0 0 0 0 0 
0 0 0 0 0 0 0 0 0 
0 0 0 0 0 0 0 0 0 
0 3.87203e-13 0 0 0 0 0 0 0 
0 0 0 0 0 0 0 0 0 
0 0 0 0 0 0 0 0 0 
0 0 0 0 0 0 0 0 0 
2.56069e-11 0 0 0 4.75163e-11 0 0 0 0 
0 0 0 0 0 0 0 0 0 
0 0 1.2042e-11 2.55708e-11 0 0 0 0 0 
0 0 0 0 1.70285e-11 0 0 0 0 
0 0 0 0 0 7.01647e-11 0 0 3.66794e-12 
1.98353e-11 0 5.74902e-11 1.05157e-10 0 0 0 0 0 
0 0 0 0 0 0 0 0 0 
4.19417e-11 4.29474e-11 0 0 6.0672e-11 0 0 0 0 
3.87202e-11 0 0 0 0 0 0 0 0 
0 0 0 0 2.43611e-11 0 1.55807e-12 0 0 
0 1.87602e-12 0 0 0 0 0 0 0 
0 0 0 2.01239e-12 4.71465e-11 0 0 9.1157e-12 0 
7.40055e-12 0 0 1.50334e-11 0 0 0 0 0 
0 0 0 0 0 0 0 0 0 
0 9.57249e-12 6.67871e-12 3.17368e-14 0 0 0 0 0 
0 2.51214e-11 0 4.739e-13 0 0 0 0 0 
0 0 0 0 0 0 1.00371e-14 0 0 
0 0 0 0 0 0 0 8.26549e-12 0 
0 1.63465e-11 0 0 0 0 0 0 0 
0 0 0 0 4.2006e-12 0 0 0 0 
0 0 0 0 0 0 0 0 0 
0 0 0 0 0 0 0 0 0 
0 0 0 0 0 0 0 0 0 
0 0 0 0 0 0 0 0 0 
0 0 0 8.30062e-13 0 0 0 0 0 
0 0 0 0 0 0 0 0 0 
0 0 0 0 0 1.13834e-11 0 0 0 
0 4.44684e-12 0 0 1.26987e-11 0 0 0 0 
0 0 4.32048e-11 0 0 0 0 4.96431e-11 0 
0 0 0 0 0 1.67784e-11 0 0 0 
0 0 0 0 8.63371e-11 0 2.01351e-10 0 0 
0 0 5.23273e-11 3.86499e-11 2.10531e-11 0 0 2.96195e-11 0 
0 0 0 0 0 8.68219e-12 0 0 7.46517e-11 
0 0 0 0 0 0 8.03151e-11 0 0 
0 0 0 0 7.48188e-11 0 0 5.82406e-11 0 
0 0 0 0 0 2.3527e-11 0 0 0 
3.07818e-11 0 0 0 0 0 2.52598e-11 0 0 
0 0 0 0 0 0 0 0 5.33624e-11 
0 0 0 0 8.75463e-11 0 1.3754e-10 0 0 
0 3.48529e-11 0 0 0 0 2.97771e-11 0 0 
6.21024e-11 0 4.49468e-11 0 0 1.99488e-11 0 0 0 
0 0 0 0 1.84357e-11 0 0 3.31019e-11 0 
0 0 2.28732e-11 3.20768e-11 0 0 0 0 0 
0 0 0 0 0 0 0 0 0 
0 0 0 0 0 0 0 0 0 
0 0 0 0 0 0 0 0 0 
0 0 2.42742e-11 5.10301e-12 0 0 0 3.49617e-11 0 
0 0 0 0 0 0 0 0 0 
0 0 0 0 0 0 0 0 0 
0 0 0 0 0 0 0 0 0 
0 0 0 0 0 0 0 0 0 
0 0 0 0 0 0 0 0 0 
0 0 0 0 0 0 0 0 0 
0 0 0 0 0 0 0 3.27019e-11 0 
0 0 0 0 6.25815e-12 1.05288e-11 0 0 0 
0 0 0 0 0 4.80353e-11 0 0 0 
0 2.41169e-10 0 0 6.21331e-11 0 0 0 0 
2.60818e-12 0 0 1.96471e-11 0 0 0 0 0 
0 0 0 1.93525e-10 2.4327e-08 0 0 0 4.22776e-11 
0 2.56004e-11 0 0 0 0 0 0 0 
0 0 0 0 2.43022e-10 0 0 0 3.63833e-11 
0 1.25239e-11 0 2.9215e-11 0 0 0 0 5.82643e-11 
0 0 1.73893e-12 0 0 3.15956e-12 0 0 0 
0 0 0 0 0 0 0 0 3.46837e-11 
0 0 2.27342e-11 0 1.4291e-11 0 0 0 0 
0 0 4.72378e-11 0 0 0 0 0 0 
0 0 6.22521e-11 6.85493e-11 0 0 0 0 0 
1.31544e-10 1.01256e-11 0 0 0 9.70656e-11 5.22816e-11 0 0 
0 0 0 0 0 0 0 0 0 
0 2.16302e-11 0 0 0 0 0 0 0 
1.89466e-11 0 0 0 0 2.29617e-11 0 0 0 
0 0 0 0 0 0 0 0 0 
0 0 0 1.6e-12 0 0 0 1.03601e-11 0 
0 0 1.51229e-11 0 0 2.99009e-11 0 0 0 
0 0 0 6.80181e-11 0 3.86015e-11 0 0 0 
0 0 0 0 0 0 4.8753e-12 0 0 
0 0 0 0 0 0 0 0 0 
0 0 0 0 0 0 0 0 0 
0 0 0 0 0 0 0 0 0 
0 0 0 0 0 0 0 0 0 
0 0 0 0 0 0 0 0 0 
0 0 0 0 2.14711e-11 1.1802e-11 0 0 5.7365e-11 
0 0 0 4.43381e-11 7.16441e-12 2.50425e-11 0 0 0 
0 0 0 0 0 0 0 0 0 
0 3.66063e-11 1.37895e-12 0 0 2.63454e-11 6.81426e-11 0 7.65531e-12 
0 1.38934e-11 0 0 7.41753e-12 1.8369e-11 4.81865e-11 0 0 
0 0 0 1.78173e-10 0 0 4.37755e-11 0 2.73693e-11 
0 0 0 0 0 0 0 2.28651e-11 5.13247e-11 
2.92625e-11 1.33276e-10 2.54797e-08 0 0 0 0 0 0 
2.30282e-11 0 0 0 2.64862e-08 0 0 1.23829e-10 0 
0 5.3786e-12 5.35136e-11 0 2.81713e-11 1.00479e-10 1.41571e-10 0 0 
0 0 0 4.98336e-11 3.29868e-11 1.43461e-11 0 0 0 
0 0 0 2.33104e-11 0 0 0 0 0 
1.03691e-11 0 1.13531e-10 5.63114e-11 0 0 0 0 0 
0 0 0 2.52186e-08 0 0 0 2.55815e-11 0 
8.69918e-11 0 0 1.76472e-10 5.31354e-11 0 0 6.73842e-11 7.59264e-11 
0 0 3.43924e-11 0 0 3.32548e-11 0 0 0 
0 4.15446e-11 0 0 1.76586e-11 0 0 0 0 
0 0 0 0 0 0 0 3.3776e-11 0 
0 4.50234e-13 0 0 0 0 0 0 0 
0 0 0 0 0 0 9.88517e-12 0 0 
0 0 0 0 0 0 0 0 5.93864e-12 
0 0 0 0 0 0 0 0 0 
0 0 1.39086e-11 0 0 0 0 0 0 
0 0 0 0 0 0 0 0 0 
0 0 0 0 0 0 0 0 0 
0 0 0 0 0 0 0 0 0 
0 0 0 0 0 0 0 5.44806e-13 0 
0 0 0 0 0 0 0 0 0 
1.77086e-11 0 0 0 0 7.49238e-11 8.84178e-11 0 0 
0 2.27813e-11 0 0 0 0 0 0 0 
0 0 0 0 0 1.05386e-11 0 0 0 
0 0 0 0 0 0 4.01489e-11 0 0 
0 0 0 0 1.35812e-11 0 7.72099e-11 8.09456e-11 0 
0 0 1.00114e-10 7.93741e-11 5.01069e-12 0 0 0 0 
0 0 0 0 1.0639e-12 4.29815e-11 0 0 0 
1.28238e-10 0 0 0 1.47207e-10 0 0 0 0 
2.55607e-11 0 1.73541e-10 0 0 0 0 0 6.24723e-11 
2.20008e-11 0 7.32253e-11 2.18747e-11 0 0 2.46575e-08 0 0 
3.34614e-11 0 0 0 0 1.44835e-11 0 0 0 
0 0 4.32293e-11 0 0 8.54271e-11 6.66781e-11 0 0 
9.96057e-11 7.91538e-11 2.67523e-11 0 7.5257e-11 0 0 0 1.34167e-10 
0 0 0 3.91551e-11 0 1.72632e-10 0 0 0 
1.08687e-10 0 0 0 5.13672e-11 6.08748e-11 0 6.74213e-12 0 
0 0 9.05241e-12 2.69557e-11 0 0 0 0 0 
0 0 0 0 0 3.08302e-11 0 7.97453e-11 0 
0 0 5.77572e-11 0 7.52365e-11 0 0 0 0 
0 0 0 0 0 0 0 0 0 
0 3.9832e-12 0 0 0 0 0 0 0 
0 0 1.95e-11 9.52089e-11 1.54526e-11 0 0 0 0 
0 5.68455e-11 0 3.24021e-11 3.29625e-11 0 0 0 9.40796e-12 
0 2.46217e-11 0 0 0 0 0 0 0 
0 0 0 0 0 0 0 0 0 
0 0 0 0 0 0 0 0 0 
0 0 0 0 0 0 0 0 0 
0 0 0 0 0 0 0 0 0 
0 0 0 0 0 0 0 0 0 
0 2.10127e-12 0 5.84445e-11 0 0 0 0 0 
0 0 0 4.09996e-11 4.70212e-11 0 0 0 0 
0 2.63486e-08 0 2.38623e-10 0 0 4.75582e-12 0 0 
0 1.27276e-10 7.40388e-12 0 0 0 0 0 4.39506e-11 
2.68718e-11 0 0 0 0 2.92137e-11 7.13447e-11 0 0 
0 0 0 0 1.26204e-11 0 0 0 0 
0 0 0 0 0 0 4.77727e-11 0 0 
0 0 8.91986e-11 0 3.02174e-11 0 0 0 0 
0 0 7.61523e-13 0 0 0 5.30422e-11 1.79918e-11 0 
0 1.22521e-10 0 0 0 0 3.58956e-10 0 0 
0 0 0 0 0 0 0 1.76808e-11 0 
0 0 0 0 0 2.1961e-10 0 0 5.55067e-11 
0 0 0 4.02888e-11 5.02498e-11 2.57863e-11 0 0 0 
1.27676e-10 0 0 0 0 2.95394e-10 2.73388e-08 2.61316e-10 0 
0 0 1.21631e-10 0 0 9.39675e-11 0 0 2.80249e-12 
1.27794e-11 0 0 0 0 9.18652e-12 0 0 0 
0 5.85034e-11 1.16017e-10 0 0 0 0 4.29878e-11 6.83388e-11 
0 0 0 0 0 0 0 1.14433e-11 0 
0 0 0 0 6.08413e-12 0 0 0 0 
0 0 0 0 3.52388e-11 0 0 0 0 
0 0 7.23421e-11 0 0 2.33787e-10 0 0 0 
0 0 0 5.14481e-11 0 0 0 0 0 
0 0 4.2274e-12 0 0 9.43248e-12 0 0 0 
0 0 0 0 0 0 0 0 0 
0 0 0 0 0 0 0 0 0 
0 0 0 0 0 0 0 0 0 
0 0 0 0 0 0 0 0 0 
0 0 9.1857e-12 0 0 0 0 3.86145e-11 0 
0 6.16701e-11 0 0 2.4737e-08 0 3.55792e-11 0 0 
3.81204e-11 0 3.65349e-11 0 0 0 0 0 0 
3.52367e-10 0 0 0 0 2.1975e-11 1.39174e-10 0 0 
1.54375e-10 0 0 0 8.09093e-11 4.50602e-12 0 0 0 
0 0 3.81951e-11 1.14902e-11 0 0 3.93403e-11 0 0 
0 0 0 2.41677e-11 0 2.5121e-11 0 2.27984e-11 0 
0 0 0 0 0 2.41781e-10 2.06109e-10 0 0 
0 2.91126e-11 6.11686e-11 9.92304e-11 0 0 1.63715e-10 0 0 
3.93657e-11 0 0 0 0 0 1.00471e-10 9.78372e-11 0 
1.3887e-10 0 1.5712e-10 0 0 9.81479e-11 0 6.20551e-11 0 
0 0 1.45345e-11 0 0 0 0 0 0 
4.50716e-11 0 0 2.4471e-08 1.59428e-10 0 1.03815e-10 0 0 
0 0 0 0 0 9.99254e-11 0 0 1.54821e-10 
4.32383e-12 8.30585e-12 0 0 0 1.84662e-10 0 0 1.93693e-10 
0 0 0 0 0 0 1.6087e-10 0 3.21488e-11 
0 0 0 0 0 0 0 0 1.20003e-10 
0 0 0 6.54462e-11 1.58309e-10 0 0 0 0 
0 0 0 0 0 0 0 6.67654e-12 0 
0 0 0 0 0 0 9.12335e-13 0 7.10161e-12 
0 0 0 0 0 0 1.19154e-10 0 8.33088e-11 
0 0 0 2.49558e-08 0 0 0 0 6.94784e-11 
0 0 3.51902e-11 0 2.05638e-11 0 9.66374e-12 0 0 
0 9.11183e-12 0 0 0 0 0 0 0 
0 0 0 0 0 0 0 0 0 
0 0 0 0 0 0 0 0 0 
0 0 0 0 0 0 0 0 0 
0 0 0 0 0 0 0 0 0 
0 0 0 0 0 0 0 0 6.44818e-12 
0 1.80409e-10 8.6062e-11 1.19282e-10 3.37624e-11 0 0 0 0 
0 0 0 0 0 0 0 0 0 
2.16144e-10 0 0 9.37796e-12 0 1.11699e-10 1.48882e-10 4.86914e-11 0 
0 0 0 0 0 0 0 0 2.20118e-13 
2.88398e-11 0 0 0 0 3.58237e-11 0 7.17545e-11 0 
0 0 0 0 2.37499e-11 0 0 1.88756e-11 0 
6.34714e-11 0 0 0 1.51568e-10 1.87895e-12 4.83934e-11 0 0 
2.86173e-10 0 0 3.03939e-10 0 0 0 0 0 
0 0 0 3.84628e-11 0 6.52233e-11 0 0 2.29455e-10 
0 0 0 0 4.56291e-11 4.0245e-12 0 0 0 
0 0 0 0 0 0 0 0 1.86518e-11 
0 0 0 0 9.82308e-11 0 0 4.18156e-11 0 
6.91141e-11 0 0 2.81646e-11 0 0 0 0 9.99248e-11 
0 0 0 0 1.58181e-10 2.81687e-10 2.71302e-08 0 0 
0 1.09074e-11 0 0 0 6.54981e-11 0 0 0 
0 8.85458e-12 0 1.88218e-12 7.33532e-11 0 1.67636e-10 8.46194e-11 0 
0 0 0 0 0 5.4181e-11 0 0 0 
0 0 0 0 0 0 0 0 0 
0 0 0 0 0 0 9.40971e-12 0 0 
0 0 0 2.73785e-11 5.10034e-11 0 0 1.7505e-11 3.05406e-11 
0 0 0 0 0 5.34481e-12 0 6.9244e-11 4.49291e-11 
0 0 0 0 0 1.1661e-11 0 0 0 
0 9.71554e-12 0 0 0 0 0 0 0 
0 0 0 0 0 0 0 0 0 
0 0 0 0 0 1.42562e-12 0 0 0 
0 0 0 0 0 0 0 0 0 
0 0 0 0 0 0 0 0 0 
0 0 0 0 0 0 7.12939e-11 1.69802e-11 0 
1.11675e-10 2.16911e-11 2.78311e-11 0 0 0 1.48327e-12 0 1.9134e-10 
0 0 2.63518e-11 0 0 2.72488e-10 0 0 2.11618e-10 
0 0 0 0 2.68258e-08 0 0 4.03833e-11 0 
3.98436e-11 0 0 0 6.62111e-11 0 0 0 0 
0 0 0 0 0 0 0 0 0 
0 0 0 0 0 6.31778e-11 6.71515e-11 2.11085e-11 0 
0 0 0 0 0 0 0 0 0 
0 0 0 0 0 0 0 0 1.20903e-10 
0 1.49289e-11 1.75497e-10 1.07105e-10 5.0641e-12 0 1.87401e-11 0 0 
0 0 0 0 0 1.63083e-11 0 0 5.31639e-12 
0 0 0 9.34887e-11 0 0 0 0 2.88264e-11 
2.46683e-11 0 1.44993e-10 0 0 7.78601e-12 0 0 0 
0 8.66052e-11 0 0 0 0 0 1.23352e-10 0 
0 0 0 2.33948e-10 0 0 0 0 0 
0 0 0 0 0 4.92755e-11 0 0 0 
0 0 0 2.96283e-11 0 0 0 0 0 
0 0 0 4.9069e-11 5.33966e-11 9.74785e-11 8.61292e-11 0 0 
0 0 0 0 0 0 0 0 0 
0 0 0 2.36824e-11 0 0 0 0 0 
0 0 0 3.87808e-11 0 1.30804e-10 4.68887e-11 0 0 
0 1.90367e-10 0 0 0 0 0 0 0 
0 0 0 0 3.457e-11 0 0 0 0 
0 0 0 0 0 0 0 0 0 
0 0 0 0 0 0 0 0 0 
0 0 0 0 0 0 0 0 0 
0 0 0 0 0 0 0 0 0 
0 0 0 0 0 0 0 0 0 
0 0 4.89052e-11 0 0 5.21694e-11 0 2.17949e-11 1.73481e-11 
0 0 0 0 0 0 0 0 0 
0 1.3735e-10 0 0 0 0 0 0 0 
0 6.00065e-11 2.53786e-10 0 0 8.56061e-11 0 0 0 
3.80912e-11 0 0 1.29e-11 0 0 0 0 1.38494e-11 
0 0 0 0 0 0 2.79792e-11 0 6.82665e-11 
0 0 0 6.98583e-11 7.04899e-11 0 0 0 5.54544e-13 
1.74616e-10 0 0 3.0345e-08 0 0 0 3.48508e-08 0 
0 0 0 1.60755e-10 0 1.06905e-10 0 6.52452e-11 1.76473e-10 
2.06548e-11 2.46216e-11 7.55379e-11 0 0 0 0 5.45463e-11 0 
5.28689e-11 0 0 0 0 0 1.72864e-11 0 0 
0 0 0 0 0 0 0 0 0 
2.00654e-11 0 0 0 6.97334e-11 0 0 0 6.15421e-11 
0 0 0 1.31688e-11 0 0 0 5.65441e-11 0 
8.17117e-11 0 0 0 0 0 0 8.53027e-11 4.35767e-11 
0 0 0 0 0 0 1.54487e-10 0 0 
0 0 0 0 0 0 0 0 0 
0 0 0 0 0 6.97227e-11 6.31575e-11 0 0 
0 0 0 0 1.65636e-11 0 0 0 0 
0 3.40914e-11 0 6.48326e-11 0 0 0 0 0 
0 0 9.5117e-11 0 0 0 0 0 0 
0 0 4.88665e-11 6.51964e-11 1.59786e-11 1.02979e-10 0 5.4329e-11 1.3733e-10 
0 0 0 0 0 0 0 0 0 
0 0 0 0 0 0 0 0 0 
0 0 0 0 0 0 0 0 0 
0 0 0 0 0 0 0 0 0 
0 0 0 0 0 0 0 0 0 
0 0 0 0 0 0 0 0 0 
0 4.06842e-11 0 8.96891e-11 0 6.10483e-11 0 0 0 
0 0 0 1.0794e-10 4.14851e-11 4.59522e-11 0 9.62594e-11 0 
0 0 0 0 0 0 0 0 0 
0 0 0 0 0 9.10908e-12 0 0 0 
0 0 0 0 0 0 1.03555e-10 0 0 
0 0 8.19261e-11 0 0 0 1.37222e-11 0 0 
0 0 0 0 0 7.77829e-11 0 1.80084e-10 0 
0 0 2.43813e-10 0 0 0 0 0 0 
0 0 0 0 2.63249e-08 0 0 0 0 
0 0 0 0 0 0 0 0 0 
0 0 0 0 0 0 0 0 1.73383e-11 
0 0 0 0 1.6152e-11 0 0 0 6.07502e-11 
0 0 0 0 1.35378e-10 0 0 0 0 
5.39132e-11 0 0 0 0 0 1.0226e-10 0 8.38081e-11 
6.69562e-11 9.46432e-11 0 0 0 0 1.14553e-10 0 0 
9.92369e-11 2.49713e-08 0 0 0 1.17769e-10 4.60696e-11 0 0 
0 1.90037e-10 0 0 0 0 2.83919e-08 0 0 
6.67154e-11 0 0 0 0 0 0 0 0 
0 0 0 0 0 0 0 0 0 
0 5.09839e-11 0 0 0 1.05006e-10 6.09941e-11 0 0 
1.34401e-11 0 0 0 0 0 0 0 0 
0 0 0 0 0 0 0 0 7.93818e-11 
4.28001e-11 0 0 0 0 0 0 0 0 
0 0 0 0 0 0 0 0 0 
0 0 0 0 0 0 0 0 0 
0 0 0 0 0 0 0 0 0 
0 0 0 0 0 0 0 0 0 
0 0 0 0 0 0 2.46868e-11 0 0 
0 6.60232e-11 0 0 0 0 0 9.48504e-11 0 
3.94548e-10 0 0 0 3.19801e-11 7.54319e-11 0 0 0 
0 3.85865e-08 3.87952e-08 0 0 0 3.08894e-11 0 0 
0 0 6.43242e-11 1.20942e-11 0 0 0 0 0 
0 0 8.95431e-11 0 0 4.3639e-11 0 0 0 
0 0 2.77814e-11 0 0 0 0 0 0 
0 1.81722e-11 0 0 8.27881e-12 0 0 0 0 
0 0 0 0 3.34062e-08 0 0 2.14351e-10 0 
2.68395e-10 0 2.6706e-10 0 0 1.25959e-11 0 0 5.88667e-12 
0 0 0 0 0 5.31978e-11 0 0 0 
0 0 0 0 0 0 0 0 0 
0 7.72909e-11 0 0 0 0 0 0 0 
0 7.26369e-12 0 0 0 0 0 0 0 
0 0 0 1.16151e-10 0 0 0 1.67824e-10 0 
0 7.43683e-12 0 0 0 0 0 0 0 
0 7.21884e-11 6.98397e-12 0 1.01523e-10 4.91699e-11 0 2.13373e-10 0 
0 0 0 0 9.49677e-11 0 0 0 2.51257e-11 
0 0 0 0 0 0 0 0 0 
0 0 0 0 1.18864e-11 2.2413e-11 0 0 1.62149e-11 
0 0 0 0 2.59003e-10 0 0 1.36508e-10 0 
4.29133e-11 1.23606e-10 0 0 0 1.07479e-10 2.25999e-10 0 0 
0 0 0 0 0 0 0 0 1.65066e-11 
0 0 0 0 1.19148e-11 7.52059e-12 0 0 0 
0 0 0 0 0 0 0 0 0 
0 0 0 0 0 0 0 0 0 
0 0 0 0 0 0 0 0 0 
0 0 0 0 0 0 0 0 0 
0 0 0 0 2.34191e-11 0 0 0 0 
0 0 6.90741e-11 0 0 0 0 0 0 
0 1.41498e-11 0 0 4.47366e-11 0 8.29815e-11 0 0 
0 0 2.35242e-10 0 0 8.7564e-11 1.00839e-10 0 0 
0 0 3.29979e-11 0 0 0 0 0 0 
6.52404e-12 0 0 8.64378e-11 0 1.17646e-10 0 0 0 
0 0 0 0 0 0 0 0 0 
0 0 0 0 0 0 1.04306e-11 0 1.87084e-11 
0 4.87137e-10 0 0 0 6.00963e-11 0 2.521e-11 0 
5.43682e-11 0 0 0 0 0 8.04938e-11 0 0 
0 8.96038e-11 0 0 5.34757e-11 0 0 4.82537e-11 0 
0 0 0 0 0 2.82051e-11 0 0 0 
0 0 0 0 1.02363e-11 0 0 0 0 
0 0 0 0 0 0 0 0 0 
0 3.37976e-11 5.5405e-11 0 0 0 0 0 0 
3.75436e-11 0 0 8.57385e-11 0 0 0 0 0 
0 0 0 0 0 2.56697e-11 0 5.42086e-11 0 
5.30998e-11 0 0 2.11005e-10 0 0 0 4.07099e-11 0 
5.59641e-12 0 0 0 0 0 0 0 0 
0 0 0 0 0 0 0 0 0 
1.90346e-10 1.66344e-10 2.68654e-08 0 0 1.96128e-10 0 0 0 
0 0 5.2193e-11 0 0 2.76073e-11 0 0 0 
0 0 0 1.66887e-11 0 0 0 0 0 
0 0 0 0 0 0 0 0 0 
0 0 0 0 0 0 0 0 0 
0 0 0 0 0 0 0 0 0 
0 0 0 0 0 0 0 0 0 
0 0 0 0 0 0 0 0 0 
0 0 0 0 0 0 0 5.38858e-11 0 
0 2.77241e-11 0 0 0 2.68488e-08 0 3.84883e-10 1.14741e-10 
0 0 0 0 2.76225e-10 2.91758e-10 0 0 0 
5.08641e-11 1.9475e-10 0 0 1.12899e-10 0 0 0 0 
0 0 0 0 0 0 0 0 0 
0 0 0 3.9938e-11 1.00509e-10 9.79425e-11 0 2.98187e-10 0 
0 2.19858e-11 0 0 0 0 6.22305e-11 0 0 
0 0 3.35624e-12 1.04939e-10 2.44741e-11 0 4.07322e-11 0 0 
0 0 4.54025e-11 0 1.06112e-10 5.51915e-12 1.74545e-11 0 0 
9.62517e-11 0 1.16514e-11 1.38797e-11 0 0 0 5.48836e-11 0 
0 0 0 0 0 0 0 0 0 
0 0 0 0 3.4635e-11 0 4.52116e-11 0 0 
0 0 0 0 0 0 0 0 0 
0 0 0 0 0 0 4.47157e-11 0 0 
0 0 1.25909e-10 0 0 0 0 8.97757e-12 0 
0 0 0 0 0 5.30048e-11 0 0 1.32653e-11 
1.32239e-10 0 0 0 0 0 0 0 1.90866e-10 
2.75532e-10 0 0 0 9.75373e-11 0 0 2.19642e-11 0 
1.68411e-11 0 0 0 0 0 0 0 0 
0 0 0 0 0 0 0 0 0 
1.08835e-10 8.62886e-11 7.27183e-11 0 0 0 0 0 0 
0 0 2.01813e-10 2.91368e-11 3.91494e-11 1.14757e-10 0 3.11653e-08 0 
0 0 0 0 0 0 0 0 0 
0 0 0 0 0 0 0 0 0 
0 0 0 0 0 0 0 0 0 
0 0 0 0 0 0 0 0 0 
0 0 0 0 0 0 0 0 0 
0 0 0 0 0 0 0 0 0 
0 0 0 0 0 0 0 2.4921e-10 4.19736e-11 
0 0 0 0 2.83365e-10 1.57484e-10 4.01605e-12 4.85399e-12 0 
0 3.85262e-11 0 1.85262e-10 0 0 0 0 0 
3.58557e-11 0 0 0 0 0 0 0 0 
0 0 0 0 0 0 0 1.30054e-10 0 
0 1.25846e-10 0 0 0 0 5.80592e-11 0 2.52506e-11 
1.37106e-11 0 0 5.30059e-11 0 3.58294e-11 0 0 0 
0 0 0 0 0 4.64172e-11 2.17216e-10 2.58233e-11 0 
0 0 0 2.48732e-11 0 0 0 2.50481e-11 0 
0 9.93229e-11 0 0 0 0 0 0 0 
0 5.51444e-11 1.36255e-10 0 0 0 0 0 2.02491e-11 
1.11302e-11 0 6.08471e-11 0 0 0 0 0 0 
1.19725e-10 0 0 0 0 0 0 0 9.22976e-11 
0 0 0 0 0 0 0 0 0 
0 0 0 0 0 0 3.41727e-11 7.46439e-11 0 
1.0346e-11 1.0787e-10 0 0 0 0 0 0 0 
1.01604e-10 0 0 0 0 0 0 0 0 
0 2.65251e-08 0 0 0 0 0 5.12079e-11 0 
0 0 0 0 0 0 0 0 0 
2.59284e-11 0 0 0 1.20438e-10 0 0 0 3.2131e-10 
0 0 0 1.46245e-10 0 0 0 2.52294e-13 0 
0 0 7.87196e-11 0 0 0 0 0 0 
0 0 0 4.58093e-11 0 0 0 0 0 
0 0 0 0 0 0 0 0 0 
0 0 0 0 0 0 0 0 0 
0 0 0 0 0 0 0 0 0 
0 0 0 0 0 0 0 0 0 
0 0 0 0 0 1.39581e-11 0 0 0 
0 0 0 0 0 0 1.37629e-10 0 0 
0 7.3488e-11 7.45182e-11 0 0 0 0 0 0 
0 0 0 0 0 0 0 9.34598e-12 0 