# vtk DataFile Version 5.1
vtk output
ASCII
DATASET STRUCTURED_POINTS
DIMENSIONS 250 250 1
SPACING 1 1 1
ORIGIN 0 0 0
POINT_DATA 62500
FIELD FieldData 6
feature_1 1 62500 float
0 0 0 0 0 0 0 0 0 
0 0 0 0 0 0 0 0 0 
0 0 0 0 0 0 0 0 0 
0 0 0 0 0 0 0 0 0 
0 0 0 0 0 0 0 0 0 
0 0 0 0 0 0 0 0 0 
0 0 0 0 0 0 0 0 0 
0 0 0 0 0 0 0 0 0 
0 0 0 0 0 0 0 0 0 
0 0 0 0 0 0 0 0 0 
0 0 0 0 0 0 0 0 0 
0 0 0 0 0 0 0 0 0 
0 0 0 0 0 0 0 0 0 
0 0 0 0 0 0 0 0 0 
0 0 0 0 0 0 0 0 0 
0 0 0 0 0 0 0 0 0 
0 0 0 0 0 0 0 0 0 
0 0 0 0 0 0 0 0 0 
0 0 0 0 0 0 0 0 0 
0 0 0 0 0 0 0 0 0 
0 0 0 0 0 0 0 0 0 
0 0 0 0 0 0 0 0 0 
0 0 0 0 0 0 0 0 0 
0 0 0 0 0 0 0 0 0 
0 0 0 0 0 0 0 0 0 
0 0 0 0 0 0 0 0 0 
0 0 0 0 0 0 0 0 0 
0 0 0 0 0 0 0 0 0 
0 0 0 0 0 0 0 0 0 
0 0 0 7.55678e-13 0 0 0 0 0 
0 0 0 0 0 0 0 0 0 
0 0 0 0 0 0 0 0 0 
0 0 0 0 0 0 0 0 0 
0 0 0 0 0 0 0 0 0 
0 0 0 0 0 0 0 0 0 
0 0 0 0 0 0 0 0 0 
0 0 0 0 0 0 0 0 0 
0 0 0 0 0 0 0 0 0 
0 0 0 0 0 0 0 0 0 
0 0 0 0 0 0 0 0 0 
0 0 0 0 0 0 0 0 0 
0 0 0 0 0 0 0 0 0 
0 0 0 0 0 0 0 0 0 
0 0 0 0 0 0 0 0 0 
0 0 0 0 0 0 0 0 0 
0 0 0 0 0 0 0 0 0 
0 0 0 0 0 0 0 0 0 
0 0 0 0 0 0 0 0 0 
0 0 0 0 0 0 0 0 0 
0 0 0 0 0 0 0 0 0 
0 0 0 0 0 0 0 0 0 
0 0 0 0 0 0 0 0 2.43807e-14 
0 0 0 0 0 0 0 0 0 
0 0 0 0 0 0 0 0 0 
0 0 0 0 0 0 0 0 0 
0 0 0 0 0 0 0 0 0 
0 0 0 0 0 0 0 0 0 
0 0 0 0 0 0 0 0 0 
0 0 0 0 0 0 0 0 0 
0 0 0 0 0 0 0 0 0 
1.27884e-12 0 0 0 0 0 0 0 0 
0 0 0 0 0 0 0 0 0 
0 0 0 0 0 0 0 0 0 
0 0 0 0 0 0 0 0 0 
0 0 0 0 0 0 0 0 0 
0 0 0 0 0 0 0 0 0 
0 0 0 0 0 0 0 0 0 
0 0 0 0 0 0 0 0 0 
0 0 0 0 0 0 0 0 0 
0 0 0 0 0 0 0 0 0 
0 0 0 0 0 0 0 0 0 
0 0 0 0 0 0 0 0 0 
0 0 0 0 0 0 0 0 0 
0 0 0 0 0 0 0 0 0 
0 0 0 0 0 0 0 0 0 
0 0 0 0 0 0 0 0 0 
0 0 0 0 0 0 0 0 0 
0 0 0 0 0 0 0 0 0 
0 0 0 0 0 0 0 0 0 
0 0 0 0 0 0 0 0 0 
0 0 0 0 0 0 0 0 0 
0 0 0 0 0 0 0 0 0 
1.25845e-13 0 0 0 0 0 0 0 0 
0 0 0 0 0 0 0 0 0 
0 0 0 0 0 0 0 0 0 
0 0 0 0 0 0 0 0 0 
0 0 0 0 0 0 0 0 0 
0 0 0 0 0 0 0 0 0 
0 0 0 0 0 0 0 0 0 
0 0 0 0 0 0 0 0 0 
0 0 0 0 0 0 0 0 0 
0 0 0 0 0 0 0 0 0 
0 0 0 0 0 0 0 0 0 
0 0 0 0 0 0 0 0 0 
0 0 0 0 0 0 0 0 0 
0 0 0 0 0 0 0 0 0 
0 0 0 0 0 0 0 0 0 
0 0 0 0 0 0 0 0 0 
0 0 0 0 0 0 0 0 0 
0 0 0 0 0 0 0 0 0 
0 0 0 0 0 0 0 0 0 
0 0 0 0 0 0 0 0 0 
0 0 0 0 0 0 0 0 0 
0 0 0 0 0 0 0 0 0 
0 0 0 0 0 0 0 0 0 
0 0 0 0 0 0 0 0 0 
0 0 0 0 0 0 0 0 0 
0 0 0 0 0 0 0 0 0 
0 0 0 0 0 0 0 0 0 
0 0 0 0 0 0 0 0 0 
0 0 0 0 0 0 0 0 0 
0 0 0 0 0 0 0 0 0 
0 0 0 0 0 0 0 0 0 
0 0 0 0 0 0 0 0 0 
0 0 0 0 0 0 0 0 0 
0 0 0 0 0 0 0 0 0 
0 0 0 0 0 0 0 0 0 
0 0 0 0 0 0 0 0 0 
0 0 0 0 0 0 0 0 0 
0 0 0 0 0 0 0 0 0 
0 0 0 0 0 0 0 0 0 
0 0 0 0 0 0 0 0 0 
0 0 0 0 0 0 0 0 0 
0 0 0 0 0 0 0 0 0 
0 0 0 0 0 0 0 0 0 
0 0 0 0 0 0 0 0 0 
0 0 0 0 0 0 0 0 0 
0 0 0 0 0 0 0 0 0 
0 0 0 0 0 0 0 0 0 
0 0 0 0 0 0 0 0 0 
0 0 0 0 0 0 0 0 0 
0 0 0 0 0 0 0 0 0 
0 0 0 0 0 0 0 0 0 
0 0 0 0 0 0 0 0 0 
0 0 0 0 0 0 0 0 0 
0 0 0 0 0 0 0 0 0 
0 0 0 0 0 0 0 0 0 
0 0 0 0 0 0 0 0 0 
0 0 0 0 0 0 0 0 0 
0 0 0 0 0 0 0 0 0 
0 0 0 0 0 0 0 0 0 
0 0 0 0 0 0 0 0 0 
0 0 0 0 0 0 0 0 0 
0 0 0 0 0 0 0 4.78399e-13 0 
0 0 0 0 0 0 0 0 0 
0 0 0 0 0 0 0 0 0 
0 0 0 0 0 0 0 0 0 
0 0 0 0 0 0 0 0 0 
0 0 0 0 0 0 0 0 0 
0 0 0 0 0 0 0 0 0 
0 0 0 0 0 0 0 0 0 
0 0 0 0 0 0 0 0 0 
0 0 0 0 0 0 0 0 0 
0 0 0 0 0 0 0 0 0 
0 0 0 0 0 0 0 0 0 
0 0 0 0 0 0 0 0 0 
0 0 0 0 0 0 0 0 0 
0 0 0 0 0 0 0 0 0 
0 0 0 0 0 0 0 0 0 
0 2.71271e-13 0 0 0 0 0 0 0 
0 0 0 0 0 0 0 0 0 
0 0 0 0 0 0 0 0 0 
0 0 0 0 0 0 0 0 0 
0 0 0 0 0 0 0 0 0 
0 0 0 0 0 0 0 0 0 
0 0 0 0 0 0 0 0 0 
0 0 0 0 0 0 0 0 0 
0 0 0 0 0 0 0 0 0 
0 0 0 0 0 0 0 0 0 
0 0 0 0 0 0 0 0 0 
0 0 0 0 0 0 0 0 0 
0 0 0 0 0 0 0 0 0 
0 0 0 0 0 0 0 0 0 
0 0 0 0 0 0 0 0 0 
0 0 0 0 0 0 0 0 0 
0 0 0 0 0 0 0 0 0 
0 0 0 0 0 0 0 0 0 
0 0 0 0 0 0 0 0 0 
0 0 0 0 0 0 0 0 0 
0 0 0 0 0 0 0 0 0 
0 0 0 0 0 0 0 0 0 
0 0 0 0 0 0 0 0 0 
0 0 0 0 0 0 0 0 0 
0 0 0 0 0 0 0 0 0 
0 0 0 0 0 0 0 0 0 
0 0 0 0 0 0 0 0 0 
0 0 0 0 0 0 0 0 0 
0 0 0 0 0 0 0 0 0 
0 0 0 0 0 0 0 0 0 
0 0 0 0 0 0 0 0 0 
0 0 0 0 0 0 0 0 0 
0 0 0 0 0 0 0 0 0 
0 0 0 0 0 0 0 0 0 
0 0 0 0 0 0 0 0 0 
0 0 0 0 0 0 0 0 0 
0 0 0 0 0 0 0 0 0 
0 0 0 0 0 0 0 0 0 
0 0 0 0 0 0 0 0 0 
0 0 0 0 0 0 0 0 0 
0 0 0 0 0 0 0 0 0 
0 0 0 0 0 0 0 0 0 
0 0 0 0 0 0 0 0 0 
0 0 0 0 0 0 0 0 0 
0 0 0 0 0 0 0 0 0 
0 0 0 0 0 0 0 0 0 
0 0 0 0 0 0 0 0 0 
0 0 0 0 0 0 0 0 0 
0 0 0 0 0 0 0 0 0 
0 0 0 0 0 0 0 0 0 
0 0 0 0 0 0 0 0 0 
0 0 0 0 0 0 0 0 0 
0 0 0 0 0 0 0 0 0 
0 0 0 0 0 0 0 0 0 
0 0 0 0 0 0 0 0 0 
0 0 0 0 0 0 0 0 0 
0 0 0 0 0 0 0 0 0 
0 0 0 0 0 0 0 0 0 
0 0 0 0 0 0 0 0 0 
0 0 0 0 0 0 0 0 0 
0 0 0 0 0 0 0 0 0 
0 0 0 0 0 0 0 0 0 
0 0 0 0 0 0 0 0 0 
0 0 0 0 0 0 0 0 0 
0 0 0 0 0 0 0 0 0 
0 0 0 0 0 0 0 0 0 
0 0 0 0 0 0 0 0 0 
0 0 0 0 0 0 0 0 0 
0 0 0 0 0 0 0 0 0 
0 0 0 0 0 0 0 0 0 
0 0 0 0 0 0 0 0 0 
0 0 0 0 0 0 0 0 0 
0 0 0 0 0 0 0 0 0 
0 0 0 0 0 0 0 0 0 
0 0 0 0 0 0 0 0 0 
0 0 0 0 0 0 0 0 0 
0 0 0 0 0 0 0 0 0 
0 0 0 0 0 0 0 0 0 
0 0 0 0 0 0 0 0 0 
0 0 0 0 0 0 0 0 0 
0 0 0 0 0 0 0 0 0 
0 0 0 0 0 0 0 0 0 
0 0 0 0 0 0 0 0 0 
0 0 0 0 0 0 0 0 0 
0 0 0 0 0 0 0 0 0 
0 0 0 0 0 0 0 0 0 
0 0 0 0 0 0 0 0 0 
0 0 0 0 0 0 0 0 0 
0 0 0 0 0 0 0 0 0 
0 0 0 0 0 0 0 0 0 
0 0 0 0 0 0 0 0 0 
0 0 0 0 0 0 0 0 0 
0 0 0 0 0 0 0 0 0 
0 0 0 0 0 0 0 0 0 
0 0 0 0 0 0 0 0 0 
0 0 0 0 0 0 0 0 0 
0 0 0 0 0 0 0 0 0 
0 0 0 0 0 0 0 0 0 
0 0 0 0 0 0 0 0 0 
0 0 0 0 0 0 0 0 0 
0 0 0 0 0 0 0 0 0 
0 0 0 0 0 0 0 0 0 
0 0 0 0 0 0 0 0 0 
0 0 0 0 0 0 0 0 0 
0 0 0 0 0 0 0 0 0 
0 0 0 0 0 0 0 0 0 
0 0 0 0 0 0 0 0 0 
0 0 0 0 0 0 0 0 0 
0 0 0 0 0 0 0 0 0 
0 0 0 0 0 0 0 0 0 
0 0 0 0 0 0 0 0 0 
0 0 0 0 0 0 0 0 0 
0 0 0 0 0 0 0 0 0 
0 0 0 0 0 0 0 0 0 
0 0 0 0 0 0 0 0 0 
0 0 0 0 0 0 0 0 0 
0 0 0 0 0 0 0 0 0 
0 0 0 0 0 0 0 0 0 
0 0 0 0 0 0 0 0 0 
0 0 0 0 0 0 0 0 0 
0 0 0 0 0 0 0 0 0 
0 0 0 0 0 0 0 0 0 
0 0 0 0 0 0 0 0 0 
0 0 0 0 0 0 0 0 0 
0 0 0 0 0 0 0 0 0 
0 0 0 0 0 0 0 0 0 
0 0 0 0 0 0 0 0 0 
0 0 0 0 0 0 0 0 0 
0 0 0 0 0 0 0 0 0 
0 0 0 0 0 0 0 0 0 
0 0 0 0 0 0 0 0 0 
0 0 0 0 0 0 0 0 0 
0 0 0 0 0 0 0 0 0 
0 0 0 0 0 0 0 0 0 
0 0 0 0 0 0 0 0 0 
0 0 0 0 0 0 0 0 0 
0 0 0 0 0 0 0 0 0 
0 0 0 0 0 0 0 0 0 
0 0 0 0 0 0 0 0 0 
0 0 0 0 0 0 0 0 0 
0 0 0 0 0 0 0 0 0 
0 0 0 0 0 0 0 0 0 
0 0 0 0 0 0 0 0 0 
0 0 0 0 0 0 0 0 0 
0 0 0 0 0 0 0 0 0 
0 0 0 0 0 0 0 0 0 
0 0 0 0 0 0 0 0 0 
0 0 0 0 0 0 0 0 0 
0 0 0 0 0 0 0 0 0 
0 0 0 0 0 0 0 0 0 
0 0 0 0 0 0 0 0 0 
0 0 0 0 0 0 0 0 0 
0 0 0 0 0 0 0 0 0 
0 0 0 0 0 0 0 0 0 
0 0 0 0 0 0 0 0 0 
0 0 0 0 0 0 0 0 0 
0 0 0 0 0 0 0 0 0 
0 0 0 0 0 0 0 0 0 
0 0 0 0 0 0 0 0 0 
0 0 0 0 0 0 0 0 0 
0 0 0 0 0 0 0 0 0 
0 0 0 0 0 0 0 0 0 
0 0 0 0 0 0 0 0 0 
0 0 0 0 0 0 0 0 0 
0 0 0 0 0 0 0 0 0 
0 0 0 0 0 0 0 0 0 
0 0 0 0 0 0 0 0 0 
0 0 0 0 0 0 0 0 0 
0 0 0 0 0 0 0 0 0 
0 0 0 0 0 0 0 0 0 
0 0 0 0 0 0 0 0 0 
0 0 0 0 0 0 0 0 0 
0 0 0 0 0 0 0 0 0 
0 0 0 0 0 0 0 0 0 
0 0 0 0 0 0 0 0 0 
0 0 0 0 0 0 0 0 0 
0 0 0 0 0 0 0 0 0 
0 0 0 0 0 0 0 0 0 
0 0 0 0 0 0 0 0 0 
0 0 0 0 0 0 0 0 0 
0 0 0 0 0 0 0 0 0 
0 0 0 0 0 0 0 0 0 
0 0 0 0 0 0 0 0 0 
0 0 0 0 0 0 0 0 0 
0 0 0 0 0 0 0 0 0 
0 0 0 0 0 0 0 0 0 
0 0 0 0 0 0 0 0 0 
0 0 0 0 0 0 0 0 0 
0 0 0 0 0 0 0 0 0 
0 0 0 0 0 0 0 0 0 
0 0 0 0 0 0 0 0 0 
0 0 0 0 0 0 0 0 0 
0 0 0 0 0 0 0 0 0 
0 0 0 0 0 0 0 0 0 
0 0 0 0 0 0 0 0 0 
0 0 0 0 0 0 0 0 0 
0 0 0 0 0 0 0 0 0 
0 0 0 0 0 0 0 0 0 
0 0 0 0 0 0 0 0 0 
0 0 0 0 0 0 0 0 0 
0 0 0 0 0 0 0 0 0 
0 0 0 0 0 0 0 0 0 
0 0 0 0 0 0 0 0 0 
0 0 0 0 0 0 0 0 0 
0 0 0 0 0 0 0 0 0 
0 0 0 0 0 0 0 0 0 
0 0 0 0 0 0 0 0 0 
0 0 0 0 0 0 0 0 0 
0 0 0 0 0 0 0 0 0 
0 0 0 0 0 0 0 0 0 
0 0 0 0 0 0 0 0 0 
0 0 0 0 0 0 0 0 0 
0 0 0 0 0 0 0 0 0 
0 0 0 0 0 0 0 0 0 
0 0 0 0 0 0 0 0 0 
0 0 0 0 0 0 0 0 0 
0 0 0 0 0 0 0 0 0 
0 0 0 0 0 0 0 0 0 
0 0 0 0 0 0 0 0 0 
0 0 0 0 0 0 0 0 0 
0 0 0 0 0 0 0 0 0 
0 0 0 0 0 0 0 0 0 
0 0 0 0 0 0 0 0 0 
0 0 0 0 0 0 0 0 0 
0 0 0 0 0 0 0 0 0 
0 0 0 0 0 0 0 0 0 
0 0 0 0 0 0 0 0 0 
0 0 0 0 0 0 0 0 0 
0 0 0 0 0 0 0 0 0 
0 0 0 0 0 0 0 0 0 
0 0 0 0 0 0 0 0 0 
0 0 0 0 0 0 0 0 0 
0 0 0 0 0 0 0 0 0 
0 0 0 0 0 0 0 0 0 
0 0 0 0 0 0 0 0 0 
0 0 0 0 0 0 0 0 0 
0 0 0 0 0 0 0 0 0 
0 0 0 0 0 0 0 0 0 
0 0 0 0 0 0 0 0 0 
0 0 0 0 0 0 0 0 0 
0 0 0 0 0 0 0 0 0 
0 0 0 0 0 0 0 0 0 
0 0 0 0 0 0 0 0 0 
0 0 0 0 0 0 0 0 0 
0 0 0 0 0 0 0 0 0 
0 0 0 0 0 0 0 0 0 
0 0 0 0 0 0 0 0 0 
0 0 0 0 0 0 0 0 0 
0 0 0 0 0 0 0 0 0 
0 0 0 0 0 0 0 0 0 
0 0 0 0 0 0 0 0 0 
0 0 0 0 0 0 0 0 0 
0 0 0 0 0 0 0 0 0 
0 0 0 0 0 0 0 0 0 
0 0 0 0 0 0 0 0 0 
0 0 0 0 0 0 0 0 0 
0 0 0 0 0 0 0 0 0 
0 0 0 0 0 0 0 0 0 
0 0 0 0 0 0 0 0 0 
0 0 0 0 0 0 0 0 0 
0 0 0 0 0 0 0 0 0 
0 0 0 0 0 0 0 0 0 
0 0 0 0 0 0 0 0 0 
0 0 0 0 0 0 0 0 0 
0 0 0 0 0 0 0 0 0 
0 0 0 0 0 0 0 0 0 
0 0 0 0 0 0 0 0 0 
0 0 0 0 0 0 0 0 0 
0 0 0 0 0 0 0 0 0 
0 0 5.99807e-13 0 0 0 0 0 0 
0 0 0 0 0 0 0 0 0 
0 0 0 0 0 0 0 0 0 
0 0 0 0 0 0 0 0 0 
0 0 0 0 0 0 0 0 0 
0 0 0 0 0 0 0 0 0 
0 0 0 0 0 0 0 0 0 
0 0 0 0 0 0 0 0 0 
0 0 0 0 0 0 0 0 0 
0 0 0 0 0 0 0 0 0 
0 0 0 0 0 0 0 0 0 
0 0 0 0 0 0 0 0 0 
0 0 0 0 0 0 0 0 0 
0 0 0 0 0 0 0 0 0 
0 0 0 0 0 0 0 0 0 
0 0 0 0 0 0 0 0 0 
0 0 0 0 0 0 0 0 0 
0 0 0 0 0 0 0 0 0 
0 0 0 0 0 0 0 0 0 
0 0 0 7.92635e-13 0 0 0 0 0 
0 0 0 0 0 0 0 0 0 
0 0 0 0 0 0 0 0 0 
0 0 0 0 0 0 0 0 0 
0 0 0 0 0 0 0 0 0 
2.10294e-12 0 0 0 0 0 0 0 0 
0 0 0 0 0 0 0 0 0 
0 0 0 0 0 0 0 0 0 
0 0 0 0 0 0 0 0 0 
0 0 0 0 0 0 0 0 0 
0 0 0 0 0 0 0 0 0 
0 0 0 0 0 0 0 0 0 
0 0 0 0 0 0 0 0 0 
0 0 0 0 5.31648e-12 0 0 0 0 
0 0 0 0 0 0 0 0 0 
0 0 0 0 0 0 0 0 0 
0 0 0 0 0 0 0 0 0 
0 0 0 0 0 0 0 0 0 
0 0 0 0 0 0 0 0 0 
0 0 0 0 0 0 0 0 0 
0 0 0 0 0 0 0 0 0 
0 0 0 0 0 0 0 0 0 
0 0 0 0 0 0 0 0 0 
0 0 0 0 0 0 0 0 0 
0 0 0 0 0 0 0 0 0 
0 0 0 0 0 0 0 0 0 
0 0 0 0 0 0 0 0 0 
0 0 0 0 0 0 0 0 0 
0 0 0 0 0 0 0 0 0 
0 0 0 0 0 0 0 0 0 
0 0 0 0 0 0 0 0 0 
0 0 0 0 0 0 3.46351e-13 0 0 
0 0 6.79076e-13 0 0 0 0 0 0 
0 4.29884e-13 0 0 0 0 0 0 0 
0 0 0 0 0 0 0 0 0 
0 0 0 0 0 0 0 0 0 
0 0 0 0 0 0 0 0 0 
0 0 0 0 0 0 0 0 0 
0 0 0 0 0 0 0 0 0 
0 0 0 0 0 0 0 0 0 
0 0 0 0 0 0 0 0 0 
0 0 0 0 0 0 0 0 0 
0 0 0 4.59469e-12 0 0 0 0 0 
0 0 0 0 0 0 0 0 0 
0 0 0 0 0 0 0 0 0 
0 0 0 0 0 0 0 0 0 
0 0 0 0 0 0 0 0 0 
0 0 0 0 0 0 0 0 0 
0 0 0 0 0 0 0 0 0 
0 0 0 0 0 0 0 0 0 
0 0 0 0 0 0 0 0 0 
0 0 0 0 0 0 0 0 0 
0 0 0 0 0 0 0 0 0 
0 0 0 0 0 0 0 0 0 
0 0 0 0 0 0 0 0 0 
0 0 0 0 0 0 0 0 0 
0 0 0 0 0 0 0 0 2.23086e-12 
0 0 0 0 0 0 0 0 0 
0 0 0 0 0 0 0 0 0 
0 0 0 0 4.17583e-12 0 0 0 0 
0 0 0 0 0 0 0 0 7.85429e-12 
0 0 0 0 0 0 0 0 0 
0 0 0 0 0 0 0 0 0 
0 0 0 7.68216e-12 0 0 0 0 0 
0 0 0 0 0 0 0 0 0 
0 0 0 8.53638e-12 0 0 0 0 0 
0 0 0 0 0 0 0 0 0 
0 0 0 5.37336e-13 0 0 0 0 0 
0 0 4.03374e-12 0 0 0 0 0 0 
0 0 0 0 0 0 0 0 0 
0 0 0 0 0 0 0 0 0 
0 0 0 0 0 0 0 0 0 
0 0 0 0 0 0 0 0 4.14998e-14 
0 0 0 0 0 0 0 0 0 
0 0 0 0 0 0 0 0 0 
0 0 0 0 0 0 0 0 0 
0 0 0 0 0 0 0 0 0 
0 0 0 0 0 0 0 0 0 
0 0 0 0 0 0 0 0 0 
0 0 0 0 0 0 0 0 0 
0 0 0 0 0 0 0 0 0 
0 0 0 0 0 0 0 0 0 
0 0 0 0 0 0 0 0 0 
0 0 0 0 0 0 0 0 0 
0 0 0 0 0 0 0 0 0 
0 0 0 0 0 0 0 0 0 
0 0 0 0 0 0 0 0 0 
0 0 0 0 0 5.32314e-12 0 0 0 
0 0 0 0 0 0 0 0 0 
0 0 0 0 0 0 0 0 0 
0 0 0 0 0 0 0 0 6.43856e-12 
0 0 0 0 0 0 0 0 0 
0 0 0 0 0 0 0 0 0 
0 0 0 0 0 0 0 7.16352e-13 0 
0 0 0 0 0 0 0 0 2.16187e-13 
0 0 0 0 0 0 0 0 0 
0 0 0 0 0 0 0 0 0 
0 0 0 0 0 3.69875e-12 0 0 0 
0 0 0 0 0 0 0 0 0 
0 0 0 0 0 0 0 0 0 
0 0 0 0 0 0 0 0 0 
0 0 0 0 0 0 0 0 0 
0 0 0 0 0 0 0 0 0 
0 0 0 0 0 0 0 0 0 
0 0 0 0 0 0 0 0 0 
0 0 0 0 0 0 0 0 0 
0 0 0 0 0 0 0 0 0 
0 0 0 0 0 0 0 0 0 
0 0 0 0 0 0 0 0 0 
0 0 0 0 0 0 0 0 0 
0 0 0 0 0 0 0 0 0 
0 0 0 0 0 0 0 0 0 
0 0 0 0 0 0 0 0 0 
0 0 0 0 0 0 0 0 0 
0 0 0 0 0 0 0 0 0 
0 0 0 0 0 0 0 0 0 
1.29984e-11 0 0 0 2.7975e-11 9.8783e-12 0 0 0 
0 0 0 0 0 0 0 0 0 
0 1.98812e-11 0 0 0 0 0 0 2.07194e-11 
0 0 0 0 0 0 0 0 0 
0 0 0 0 0 0 0 0 0 
0 0 0 0 0 0 0 0 0 
0 0 0 0 0 0 0 0 0 
0 0 0 0 0 0 0 0 0 
0 0 0 0 0 0 0 0 0 
0 0 0 0 0 0 0 0 0 
0 0 0 0 0 0 0 0 0 
0 0 0 0 0 0 0 0 0 
0 0 0 0 0 0 0 0 0 
0 0 0 0 0 0 0 0 0 
0 0 0 0 0 0 0 0 0 
0 1.55984e-12 0 0 0 0 0 0 0 
0 0 0 0 0 0 0 0 0 
0 0 7.99573e-13 0 0 0 0 0 0 
0 0 0 0 0 0 0 0 0 
0 0 0 0 0 0 0 0 0 
0 0 0 0 0 0 0 0 0 
0 0 0 0 0 0 0 0 0 
0 0 0 0 0 0 0 0 0 
0 0 0 0 0 0 0 0 0 
0 0 0 0 0 0 0 0 0 
0 0 0 0 0 0 0 0 0 
0 0 1.07383e-11 0 0 0 0 0 0 
0 0 0 0 0 1.5506e-11 1.41065e-11 0 0 
0 0 0 0 0 3.13823e-13 0 0 0 
0 0 0 0 0 0 0 0 0 
0 0 0 0 0 0 0 0 0 
7.04773e-12 0 0 0 0 2.49135e-11 0 0 0 
0 0 0 0 0 9.53645e-12 0 0 0 
0 0 0 0 0 0 0 0 0 
0 0 0 0 0 0 0 0 0 
0 0 0 0 0 0 0 0 0 
0 0 0 0 0 1.32692e-11 0 1.6594e-11 0 
0 0 0 0 0 0 0 1.78398e-12 0 
0 0 0 0 0 0 0 0 0 
0 0 0 0 0 0 0 0 0 
0 0 0 0 0 0 0 0 0 
0 0 0 0 0 0 0 0 0 
0 0 0 0 0 0 0 0 0 
0 0 0 0 0 0 0 6.1529e-12 0 
0 0 0 0 0 0 0 0 0 
0 0 0 0 0 0 0 0 0 
0 0 0 0 0 0 0 0 0 
0 0 0 0 0 0 0 0 0 
0 0 0 0 0 0 0 0 0 
0 0 0 0 0 0 0 0 0 
0 0 0 0 0 0 0 0 0 
0 0 0 0 0 0 0 0 0 
0 0 0 0 0 0 0 0 0 
0 0 0 0 0 0 0 0 0 
0 0 0 0 0 0 0 0 0 
0 0 0 0 0 1.6265e-11 0 2.4576e-11 0 
0 0 0 0 0 0 0 0 0 
0 0 0 0 2.43441e-11 0 2.96336e-11 0 0 
6.16706e-12 0 0 0 0 0 0 0 0 
3.06249e-11 0 0 6.44503e-13 0 0 0 0 0 
0 1.5586e-11 1.82111e-11 0 0 0 0 0 0 
0 0 0 0 0 0 0 0 0 
0 0 0 0 5.36807e-12 0 0 0 0 
0 0 0 0 0 0 6.05399e-12 0 0 
0 0 0 5.46026e-12 0 0 0 0 0 
0 0 0 0 0 0 0 0 0 
0 0 0 0 0 0 0 0 0 
0 0 0 0 0 0 0 0 0 
0 0 0 0 0 0 0 0 0 
0 0 0 0 0 0 0 0 0 
0 0 0 0 0 0 0 0 0 
0 0 4.73106e-12 0 0 0 0 0 0 
0 0 0 0 0 0 0 0 0 
0 0 0 0 0 0 0 0 0 
0 0 0 0 0 0 0 0 0 
0 0 0 0 0 0 0 0 0 
0 0 0 0 0 0 0 0 0 
0 0 6.48249e-14 0 0 0 0 0 0 
0 0 0 0 1.94327e-13 0 0 0 0 
0 0 0 0 0 0 0 0 0 
0 0 0 0 0 0 0 0 0 
0 0 1.43e-11 1.6396e-11 0 0 0 9.95435e-12 0 
0 0 0 0 0 0 0 0 0 
0 2.40426e-11 0 1.97459e-12 0 0 1.03662e-12 0 0 
0 0 9.55583e-12 0 0 0 0 0 0 
0 0 0 0 0 0 0 0 0 
0 0 0 0 0 0 0 1.11489e-11 0 
0 0 0 0 0 0 0 0 0 
0 3.31773e-11 0 0 0 0 0 0 0 
1.04009e-11 0 0 0 0 0 0 0 0 
0 0 0 0 0 0 0 0 0 
8.19841e-12 0 0 0 0 0 0 1.01449e-11 0 
0 0 0 0 0 0 1.06878e-11 0 0 
0 0 0 0 0 0 0 0 0 
0 0 0 0 0 0 0 0 0 
0 7.41903e-13 0 0 0 0 0 0 0 
0 0 0 0 0 0 0 0 0 
0 0 0 0 0 0 0 0 0 
0 0 0 0 0 0 0 0 9.92147e-12 
0 0 0 1.45032e-11 0 0 0 0 0 
0 0 0 0 0 0 0 0 0 
0 0 0 0 0 0 0 0 0 
0 0 0 0 0 0 0 0 0 
0 0 0 0 0 0 0 0 0 
0 0 0 0 0 0 0 0 0 
0 0 0 0 0 0 0 0 0 
0 0 0 0 0 0 0 0 0 
0 0 0 0 0 0 0 0 0 
0 0 0 0 0 0 0 0 0 
0 0 0 0 0 0 0 0 0 
0 0 1.2245e-11 1.5112e-11 0 2.10878e-11 0 0 0 
4.00966e-11 0 3.99874e-11 0 0 0 0 0 0 
2.46237e-11 0 0 0 0 0 0 0 0 
0 2.70678e-11 0 0 0 0 0 5.26615e-11 0 
0 0 0 0 0 0 0 1.01127e-12 0 
0 0 0 0 0 0 0 0 0 
4.13234e-11 0 0 5.68569e-12 0 1.48459e-11 0 0 0 
0 0 0 0 0 0 7.05489e-12 0 0 
0 0 0 0 0 0 0 0 0 
2.99208e-11 0 0 0 0 0 0 0 0 
0 0 0 0 0 0 0 0 0 
0 0 0 5.33567e-12 0 0 1.28156e-11 0 0 
0 0 0 0 0 0 0 0 0 
0 0 0 0 0 0 0 0 0 
0 0 0 0 0 0 0 0 0 
0 0 0 0 0 0 0 0 0 
0 0 0 0 0 0 0 0 0 
0 0 0 0 0 0 0 0 0 
8.71231e-12 0 0 0 0 0 0 0 0 
0 0 0 0 0 0 0 0 0 
0 0 0 0 0 0 0 0 0 
0 0 0 0 0 0 0 0 0 
0 0 0 0 0 0 0 0 0 
0 0 0 0 0 0 0 0 0 
0 0 0 0 0 0 0 0 0 
0 0 0 0 0 0 9.07303e-12 0 0 
2.79507e-11 0 4.1903e-11 0 0 0 0 0 0 
0 0 0 0 0 0 0 0 0 
0 0 0 0 2.27211e-11 0 2.63887e-11 0 0 
1.75392e-11 2.6227e-11 0 0 0 3.7299e-11 0 0 0 
0 0 0 0 0 0 0 0 0 
0 0 0 2.27e-11 7.1363e-11 0 0 2.64331e-11 0 
4.91631e-11 0 0 0 0 0 0 0 0 
0 3.66448e-11 0 4.59646e-11 0 0 0 0 0 
0 0 0 0 9.21859e-12 0 0 0 1.35113e-11 
0 0 0 0 0 0 0 0 0 
0 0 0 0 0 0 0 0 0 
0 0 0 5.72292e-11 2.18185e-11 0 0 0 0 
0 0 0 0 3.81383e-12 0 0 0 0 
0 9.95756e-12 0 0 0 0 0 0 0 
0 0 1.36443e-11 0 0 0 0 0 0 
0 0 0 0 0 0 0 0 0 
0 0 0 0 0 0 0 0 0 
0 0 0 0 0 0 0 0 0 
0 0 0 0 0 0 0 0 2.61026e-11 
0 0 0 0 0 0 0 0 0 
0 0 0 0 0 0 0 0 0 
0 0 0 0 0 0 0 9.19331e-13 0 
0 0 0 0 0 0 0 0 0 
0 0 0 0 0 0 0 0 0 
0 0 0 0 0 0 0 0 0 
0 0 0 0 0 0 0 0 0 
0 0 0 0 0 0 0 0 0 
0 0 0 0 0 0 0 0 0 
3.25675e-11 0 0 0 6.23457e-11 0 0 0 0 
0 0 0 0 0 0 0 0 0 
0 0 1.19605e-11 1.53342e-11 0 0 0 0 0 
0 0 0 0 2.57409e-11 0 0 0 0 
0 0 0 0 0 7.4925e-11 0 0 6.38541e-12 
2.18377e-11 0 6.18881e-11 1.01381e-10 0 0 0 0 0 
0 0 0 0 0 0 0 0 0 
4.67485e-11 5.43598e-11 0 0 6.37661e-11 0 0 0 0 
3.91518e-11 0 0 0 0 0 0 0 0 
0 0 0 0 2.33698e-11 0 0 0 0 
0 6.38669e-12 0 0 0 0 0 0 0 
0 0 0 4.47028e-12 4.45487e-11 0 0 1.30038e-11 0 
1.11905e-11 0 0 1.85247e-11 0 0 0 0 0 
0 0 0 4.76763e-14 0 0 0 0 0 
0 7.68288e-12 4.08386e-12 0 0 0 0 0 0 
0 2.66054e-11 0 5.87102e-13 0 0 0 0 1.12066e-12 
0 0 0 0 0 0 0 0 0 
0 0 0 0 0 0 0 6.04038e-12 0 
0 1.33277e-11 0 0 0 0 0 0 0 
0 0 0 0 3.20365e-12 0 0 0 0 
0 0 1.78795e-12 0 0 0 0 0 0 
0 0 0 0 0 0 0 0 0 
0 0 0 0 0 0 0 0 0 
0 0 0 0 0 0 0 0 0 
0 0 0 0 0 0 0 0 0 
0 0 0 0 0 0 0 0 0 
0 0 0 0 0 1.23706e-11 0 0 0 
0 4.69223e-12 0 0 1.1168e-11 0 0 0 0 
0 0 4.33214e-11 0 0 0 0 4.90669e-11 0 
0 0 0 0 0 1.71461e-11 0 0 0 
0 0 0 0 8.73702e-11 0 2.04232e-10 0 0 
0 0 5.15378e-11 3.89683e-11 1.93552e-11 0 0 3.38911e-11 0 
0 0 0 0 0 4.31149e-12 0 0 7.86627e-11 
0 0 0 0 0 0 7.97651e-11 0 0 
0 0 0 0 7.30143e-11 0 0 5.74087e-11 0 
0 0 0 0 0 2.36802e-11 0 0 0 
3.40918e-11 0 0 0 0 0 1.99327e-11 0 0 
0 0 0 0 0 0 0 0 5.3765e-11 
0 0 0 0 8.43308e-11 0 1.31222e-10 0 0 
0 3.60253e-11 0 0 0 0 3.19819e-11 0 0 
6.59438e-11 0 4.91153e-11 0 0 2.78631e-11 0 0 0 
0 0 0 0 2.09302e-11 0 0 3.28809e-11 0 
0 0 2.26664e-11 2.95181e-11 0 0 0 0 0 
0 0 0 0 0 0 0 0 0 
0 0 0 0 0 0 0 0 0 
0 0 0 0 0 0 0 0 0 
0 0 1.91336e-11 4.89643e-12 0 0 0 2.99109e-11 0 
0 0 0 0 0 0 0 0 0 
0 0 0 0 0 0 0 0 0 
0 0 0 0 0 0 0 0 0 
0 0 0 0 0 0 0 0 0 
0 0 0 0 0 0 0 0 0 
0 0 0 0 0 0 0 0 0 
0 0 0 0 0 0 0 3.76395e-11 0 
0 0 0 0 1.32126e-11 1.41479e-12 0 0 0 
0 0 0 0 0 4.60261e-11 0 0 0 
0 2.42024e-10 0 0 6.46642e-11 0 0 0 0 
1.25584e-12 0 0 1.51263e-11 0 0 0 0 0 
0 0 0 2.04675e-10 2.43325e-08 0 0 0 4.39726e-11 
0 2.6567e-11 0 0 0 0 0 0 0 
0 0 0 0 2.45907e-10 0 0 0 3.60402e-11 
0 1.4977e-11 0 2.10831e-11 0 0 0 0 6.39045e-11 
0 5.88045e-13 3.71818e-12 0 0 0 0 0 0 
0 0 0 0 0 0 0 0 4.17001e-11 
0 0 1.76386e-11 0 1.45591e-11 0 0 0 0 
0 0 4.958e-11 0 0 0 0 0 0 
0 0 5.85143e-11 6.94048e-11 0 0 0 0 0 
1.23022e-10 1.5695e-11 0 0 0 8.94717e-11 5.06663e-11 0 0 
0 0 0 0 0 0 0 0 0 
0 1.64213e-11 0 0 0 0 0 0 0 
1.34536e-11 0 0 0 0 2.6603e-11 0 0 0 
0 0 0 0 0 0 0 0 0 
0 0 0 0 0 0 0 1.14342e-11 0 
0 0 1.845e-11 0 0 2.90701e-11 0 0 0 
0 0 0 6.72362e-11 0 3.46069e-11 0 0 0 
0 0 0 0 0 0 1.6164e-12 0 0 
0 0 0 0 0 0 0 0 0 
0 0 0 0 0 0 0 0 0 
0 0 0 0 0 0 0 0 0 
0 0 0 0 0 0 0 0 0 
0 0 0 0 0 0 0 0 0 
0 0 0 0 1.77063e-11 1.14177e-11 0 0 6.19071e-11 
0 0 0 4.53018e-11 5.57189e-12 2.94665e-11 0 0 0 
0 0 0 0 0 0 0 0 0 
0 3.77011e-11 0 0 0 2.61733e-11 7.32084e-11 0 8.50769e-12 
0 9.69314e-12 0 0 6.14392e-12 2.03928e-11 4.77686e-11 0 0 
0 0 0 1.83212e-10 0 0 4.55003e-11 0 2.25375e-11 
0 0 0 0 0 0 0 2.2434e-11 5.63151e-11 
3.09468e-11 1.33416e-10 2.54827e-08 0 0 0 0 0 0 
2.2142e-11 0 0 0 2.6488e-08 0 0 1.27405e-10 0 
0 7.19926e-12 5.70533e-11 0 2.44132e-11 1.01866e-10 1.39224e-10 0 0 
0 0 0 5.03742e-11 3.25859e-11 1.10307e-11 0 0 0 
0 0 0 1.53694e-11 0 0 0 0 0 
8.4094e-12 0 1.09902e-10 5.58474e-11 0 0 0 0 0 
0 0 0 2.52204e-08 0 0 0 2.40375e-11 0 
8.28606e-11 0 0 1.82874e-10 5.60668e-11 0 0 6.19014e-11 8.31812e-11 
0 0 2.76933e-11 0 0 3.89814e-11 0 0 0 
0 4.15668e-11 0 0 2.46822e-11 0 0 0 0 
0 0 0 0 0 0 0 2.5531e-11 0 
0 0 0 0 0 0 0 0 0 
0 0 0 0 0 0 7.06639e-12 0 0 
0 0 0 0 0 0 0 0 2.39115e-12 
0 0 0 0 0 0 0 0 0 
0 0 1.23705e-11 0 0 0 0 0 0 
0 0 0 0 0 0 0 0 0 
0 0 0 0 0 0 0 0 0 
0 0 0 0 0 0 0 0 0 
0 0 0 0 0 0 0 0 0 
0 0 0 0 0 0 0 0 0 
1.64298e-11 0 0 0 0 8.00731e-11 8.23367e-11 0 0 
0 2.00504e-11 0 0 0 0 0 0 0 
0 0 0 0 0 1.34258e-11 0 0 0 
0 0 0 0 0 0 3.75694e-11 0 0 
0 0 0 0 1.56018e-11 0 7.8327e-11 8.13795e-11 0 
0 0 1.00573e-10 7.78905e-11 3.08072e-12 0 0 0 0 
0 0 0 0 1.0589e-12 4.54448e-11 0 0 0 
1.31888e-10 0 0 0 1.42287e-10 0 0 0 0 
2.35737e-11 0 1.76469e-10 0 0 0 0 0 5.56279e-11 
2.85978e-11 0 7.75179e-11 2.33822e-11 0 0 2.46574e-08 0 0 
3.4401e-11 0 0 0 0 1.0555e-11 0 0 0 
0 0 4.81457e-11 0 0 8.06565e-11 7.26246e-11 0 0 
1.02623e-10 7.2228e-11 2.71286e-11 0 7.6194e-11 0 0 0 1.36684e-10 
0 0 0 2.7055e-11 0 1.72279e-10 0 0 0 
1.0897e-10 0 0 0 5.29901e-11 6.06232e-11 0 8.1733e-12 0 
0 0 9.57562e-12 2.97737e-11 0 0 0 0 0 
0 0 0 0 0 2.48052e-11 0 8.48407e-11 0 
0 0 5.53773e-11 0 8.20853e-11 0 0 0 0 
0 0 0 0 0 0 0 0 0 
0 9.95592e-12 0 0 0 0 0 0 0 
0 0 1.52726e-11 9.14042e-11 2.01085e-11 0 0 0 0 
0 5.31725e-11 0 3.50611e-11 3.12302e-11 0 0 0 1.49793e-11 
0 2.06406e-11 0 0 0 0 0 0 0 
0 0 0 0 0 0 0 0 0 
0 0 0 0 0 0 0 0 0 
0 0 0 0 0 0 0 0 0 
0 0 0 0 0 0 0 0 0 
0 0 0 0 0 0 0 0 0 
0 1.78893e-12 0 5.13324e-11 0 0 0 0 0 
0 0 0 4.6529e-11 4.88274e-11 0 0 0 0 
0 2.63431e-08 0 2.39774e-10 0 0 8.8778e-12 0 0 
0 1.24149e-10 4.05518e-12 0 0 0 0 0 4.31299e-11 
3.15541e-11 0 0 0 0 2.74501e-11 6.65769e-11 0 0 
0 0 0 0 8.2634e-12 0 0 0 0 
0 0 0 0 0 0 4.86673e-11 0 0 
0 0 9.26549e-11 0 3.23478e-11 0 0 0 0 
0 0 0 0 0 0 5.29516e-11 7.19304e-12 0 
0 1.25085e-10 0 0 0 0 3.60772e-10 0 0 
0 0 0 0 0 0 0 1.58491e-11 0 
1.62831e-12 0 0 0 0 2.19247e-10 0 0 5.6453e-11 
0 0 0 3.77733e-11 4.73783e-11 2.99842e-11 0 0 0 
1.26728e-10 0 0 0 0 2.92913e-10 2.73401e-08 2.62809e-10 0 
0 0 1.22961e-10 0 0 9.14899e-11 0 0 0 
1.09746e-11 0 0 0 0 1.16062e-11 0 0 0 
0 5.20367e-11 1.20804e-10 0 0 0 0 4.1525e-11 6.13159e-11 
0 0 0 0 0 0 0 1.14202e-11 0 
0 0 0 0 8.88534e-12 0 0 0 0 
0 0 0 0 3.11518e-11 0 0 0 0 
0 0 7.15222e-11 0 0 2.40794e-10 0 0 0 
0 0 0 5.41832e-11 0 0 0 0 0 
0 0 7.65295e-12 0 0 9.22471e-13 0 0 0 
0 0 0 0 0 0 0 0 0 
0 0 0 0 0 0 0 0 0 
0 0 0 0 0 0 0 0 0 
0 0 0 0 0 0 0 0 0 
0 0 2.44575e-12 0 0 0 0 4.39717e-11 0 
0 6.85581e-11 0 0 2.47374e-08 0 3.71064e-11 0 0 
3.87627e-11 0 2.9884e-11 0 0 0 0 0 0 
3.56272e-10 0 0 0 0 1.96658e-11 1.38629e-10 0 0 
1.49939e-10 0 0 0 8.98494e-11 7.624e-12 0 0 0 
0 0 4.1382e-11 1.52851e-11 0 0 4.10195e-11 0 0 
0 0 0 2.08977e-11 0 2.18329e-11 0 2.51983e-11 0 
0 0 0 0 0 2.45836e-10 2.01964e-10 0 0 
0 3.25231e-11 6.65367e-11 9.64657e-11 0 0 1.6115e-10 0 0 
3.96875e-11 0 0 0 0 0 1.01144e-10 9.61914e-11 0 
1.41619e-10 0 1.602e-10 0 0 9.85411e-11 0 5.77871e-11 0 
0 0 2.00737e-11 0 0 0 0 0 0 
4.29673e-11 0 0 2.44689e-08 1.56984e-10 0 1.03031e-10 0 0 
0 0 0 0 0 1.07732e-10 0 0 1.43282e-10 
0 6.3688e-12 0 0 0 1.85146e-10 0 0 1.95517e-10 
0 0 0 0 0 0 1.59282e-10 0 3.7035e-11 
0 0 0 0 0 0 0 0 1.17115e-10 
0 0 0 6.42687e-11 1.56237e-10 0 0 0 0 
0 0 0 0 0 0 0 6.7092e-12 0 
0 0 0 0 0 0 0 0 4.32467e-12 
0 0 0 0 0 0 1.18717e-10 0 8.67968e-11 
0 0 0 2.49562e-08 0 0 0 0 7.04746e-11 
0 0 3.73021e-11 0 1.89459e-11 0 8.77378e-12 0 0 
0 1.01956e-11 0 0 0 0 0 0 0 
0 0 0 0 0 0 0 0 0 
0 0 0 0 0 0 0 0 0 
0 0 0 0 0 0 0 0 0 
0 0 0 0 0 0 0 0 0 
0 0 0 0 0 0 0 0 4.00052e-12 
0 1.77447e-10 8.22997e-11 1.23226e-10 3.18162e-11 0 0 0 0 
0 0 0 0 0 0 0 0 0 
2.20595e-10 0 0 1.11482e-11 0 1.15279e-10 1.42495e-10 4.38627e-11 0 
0 0 0 0 0 0 3.84561e-13 0 0 
2.58848e-11 0 0 0 0 3.41148e-11 0 6.92356e-11 0 
0 0 0 0 2.21329e-11 0 0 2.40421e-11 0 
6.49229e-11 0 0 0 1.56781e-10 0 4.15829e-11 0 0 
2.90446e-10 0 0 2.97986e-10 0 0 0 0 0 
0 0 0 4.22713e-11 0 6.01831e-11 0 0 2.31915e-10 
0 0 0 0 5.26721e-11 3.84589e-12 0 0 0 
0 0 0 0 0 0 0 0 1.8355e-11 
0 0 0 0 9.24243e-11 0 0 4.27014e-11 0 
7.141e-11 0 0 3.63999e-11 0 0 0 0 1.00811e-10 
0 0 0 0 1.57533e-10 2.77121e-10 2.71338e-08 0 0 
0 9.03115e-12 0 0 0 6.82407e-11 0 0 0 
0 1.10062e-12 0 2.47628e-12 7.38764e-11 0 1.63683e-10 8.05096e-11 0 
0 0 0 0 0 5.27521e-11 0 0 0 
0 0 0 0 0 0 0 0 0 
0 0 0 0 0 0 1.25578e-11 0 0 
0 0 0 2.90641e-11 5.82696e-11 0 0 2.29083e-11 3.30074e-11 
0 0 0 0 0 9.3654e-12 0 6.48325e-11 4.44533e-11 
0 0 0 0 0 6.90687e-12 0 0 0 
0 1.24439e-11 0 0 0 0 0 0 0 
0 0 0 0 0 0 0 0 0 
0 0 0 0 0 0 0 0 0 
0 0 0 0 0 0 0 0 0 
0 0 0 0 0 0 0 0 0 
0 0 0 1.2755e-12 0 0 6.23843e-11 2.04383e-11 0 
1.10538e-10 2.14965e-11 3.48771e-11 0 0 0 2.00794e-12 0 1.92885e-10 
0 0 2.69619e-11 0 0 2.69584e-10 0 0 2.12765e-10 
0 0 0 0 2.68304e-08 0 0 4.36772e-11 0 
4.18547e-11 0 0 0 7.07882e-11 0 0 0 0 
0 0 0 0 0 0 0 0 0 
0 0 2.2028e-12 0 0 6.44608e-11 7.11506e-11 2.63068e-11 0 
0 0 0 0 0 0 0 0 0 
0 0 0 0 0 0 0 0 1.21242e-10 
0 1.92697e-11 1.83834e-10 1.08265e-10 4.07099e-12 0 1.69129e-11 0 0 
0 0 0 0 0 1.3907e-11 0 0 6.52654e-12 
0 0 0 9.48946e-11 0 0 0 0 3.75622e-11 
3.3025e-11 0 1.46884e-10 0 0 8.95746e-12 0 0 0 
0 8.41594e-11 0 0 0 0 0 1.20987e-10 0 
0 0 0 2.29856e-10 0 0 0 0 0 
0 0 0 0 0 5.36569e-11 0 0 0 
0 0 0 3.50098e-11 0 0 0 0 0 
0 0 0 4.60883e-11 5.8031e-11 1.01393e-10 8.09638e-11 0 0 
0 0 0 0 0 0 0 0 0 
0 0 0 3.18584e-11 0 0 0 0 0 
0 0 0 3.44429e-11 0 1.32659e-10 4.98573e-11 0 0 
0 1.91894e-10 0 0 0 0 0 0 0 
0 0 0 0 3.47627e-11 0 0 0 0 
0 0 0 0 0 0 0 0 0 
0 0 0 0 0 0 0 0 0 
0 0 0 0 0 0 0 0 0 
0 0 0 0 0 0 0 0 0 
0 0 0 0 0 0 1.79451e-12 0 0 
0 0 5.2917e-11 0 0 5.12898e-11 0 2.48595e-11 1.40276e-11 
0 0 0 0 0 0 0 0 0 
0 1.43066e-10 0 0 0 0 0 0 0 
0 6.95955e-11 2.58116e-10 0 0 9.61776e-11 0 0 0 
4.4649e-11 0 0 1.24959e-11 0 0 0 0 1.35683e-11 
0 0 0 0 0 0 3.29038e-11 0 6.52107e-11 
0 0 0 7.10316e-11 6.87334e-11 0 0 0 0 
1.70085e-10 0 0 3.03456e-08 0 0 0 3.48517e-08 0 
0 0 0 1.59199e-10 0 1.06094e-10 0 6.95157e-11 1.73786e-10 
1.89816e-11 2.79828e-11 7.82516e-11 0 0 0 0 6.47664e-11 0 
5.45178e-11 0 0 0 0 0 1.26166e-11 0 0 
0 0 0 0 0 0 0 0 2.78797e-13 
2.52085e-11 0 0 0 7.5817e-11 0 0 0 5.87739e-11 
0 0 0 1.68366e-11 0 0 0 5.81981e-11 0 
7.96974e-11 0 0 0 0 0 0 8.65261e-11 3.57485e-11 
0 0 0 0 0 0 1.56349e-10 0 0 
0 0 0 0 0 0 0 0 0 
0 0 0 0 0 7.56964e-11 6.64414e-11 0 0 
0 0 0 0 1.08381e-11 0 0 0 0 
0 3.96341e-11 0 6.00924e-11 0 0 0 0 0 
0 0 9.78237e-11 0 0 0 0 0 0 
0 0 4.94284e-11 6.85471e-11 2.7724e-11 1.01063e-10 0 5.47356e-11 1.42543e-10 
0 0 0 0 0 0 0 0 0 
0 0 0 0 0 0 0 0 0 
0 0 0 0 0 0 0 0 0 
0 0 0 0 0 0 0 0 0 
0 0 0 0 0 0 0 0 0 
0 0 0 0 0 0 0 0 0 
0 4.55046e-11 0 9.3481e-11 0 6.65097e-11 0 0 0 
0 0 0 1.14974e-10 4.24994e-11 4.37164e-11 0 9.54239e-11 0 
0 0 0 0 0 0 0 0 0 
0 0 0 0 0 9.1404e-12 0 0 0 
0 0 0 0 0 0 1.05337e-10 0 0 
0 0 7.92982e-11 0 0 0 1.02151e-11 0 0 
0 0 0 0 0 7.78868e-11 0 1.79732e-10 0 
0 0 2.50282e-10 0 0 0 0 0 0 
0 0 0 0 2.63287e-08 0 0 0 0 
0 0 0 0 0 0 0 0 0 
0 0 0 0 0 0 0 0 1.09971e-11 
0 0 0 0 2.41336e-11 0 0 0 6.08543e-11 
0 3.50115e-12 0 0 1.33882e-10 0 0 0 0 
5.80033e-11 0 0 0 0 0 1.09122e-10 0 8.01816e-11 
5.90695e-11 9.56676e-11 0 0 0 0 1.19523e-10 0 0 
1.08939e-10 2.4977e-08 0 0 0 1.20921e-10 4.57994e-11 0 0 
0 1.91225e-10 0 0 0 0 2.83855e-08 0 0 
6.878e-11 0 0 0 0 0 0 0 0 
0 0 0 0 0 0 0 0 0 
0 4.40795e-11 0 0 0 1.06311e-10 6.02342e-11 0 0 
1.02417e-11 0 0 0 0 0 0 0 0 
0 0 0 0 0 0 0 0 7.27089e-11 
3.95106e-11 0 0 0 0 0 0 0 0 
0 0 0 0 0 0 0 0 0 
0 0 0 0 0 0 0 0 0 
0 0 0 0 0 0 0 0 0 
0 0 0 0 0 0 0 0 0 
0 0 0 0 0 0 2.54938e-11 0 0 
0 5.97139e-11 0 0 0 0 0 9.60296e-11 0 
3.96168e-10 0 0 0 3.35262e-11 7.80029e-11 0 0 0 
0 3.85853e-08 3.87937e-08 0 0 0 3.22643e-11 0 0 
0 0 7.18386e-11 1.14664e-11 0 0 0 0 0 
0 0 8.44054e-11 0 0 4.44399e-11 0 0 0 
0 0 1.89731e-11 0 0 0 0 0 0 
0 1.84507e-11 0 0 1.35375e-12 0 0 0 0 
0 0 0 0 3.34044e-08 0 0 2.14889e-10 0 
2.59789e-10 0 2.72274e-10 0 0 6.68898e-12 0 0 7.39858e-12 
0 0 0 0 0 4.98234e-11 0 0 0 
0 0 0 0 0 0 0 0 0 
0 8.01923e-11 0 0 0 0 0 0 0 
0 3.24663e-12 0 0 0 0 0 0 0 
0 0 0 1.15769e-10 0 0 0 1.60664e-10 0 
0 1.18796e-11 0 0 0 0 0 0 0 
0 7.72668e-11 7.26526e-12 0 1.02594e-10 5.6183e-11 0 2.14378e-10 0 
0 0 0 0 9.70731e-11 0 0 0 2.94672e-11 
0 0 0 0 0 0 0 0 0 
0 0 0 0 1.36915e-11 2.21555e-11 0 0 2.33736e-11 
0 0 0 0 2.6424e-10 0 0 1.37944e-10 0 
4.32706e-11 1.27798e-10 0 0 0 1.09676e-10 2.26275e-10 0 0 
0 0 0 0 0 0 0 0 1.92582e-11 
0 0 0 0 1.35051e-11 6.97859e-12 0 0 0 
0 0 0 0 0 0 0 0 0 
0 0 0 0 0 0 0 0 0 
0 0 0 0 0 0 0 0 0 
0 0 0 0 0 0 0 0 0 
0 0 0 0 2.10837e-11 0 0 0 0 
0 0 6.29104e-11 0 0 0 0 0 0 
0 7.90243e-12 0 0 4.5547e-11 0 8.59485e-11 0 0 
0 0 2.3105e-10 0 0 8.66199e-11 1.08129e-10 0 0 
0 0 3.21552e-11 0 0 0 0 0 0 
5.99799e-12 0 0 8.8284e-11 0 1.13963e-10 0 0 0 
0 0 0 0 0 0 0 0 0 
0 0 0 0 0 0 9.97785e-12 0 1.94618e-11 
0 4.85234e-10 0 0 0 6.08933e-11 0 2.61803e-11 0 
5.52437e-11 0 0 0 0 0 7.78266e-11 0 0 
0 9.58214e-11 0 0 4.899e-11 0 0 3.93853e-11 0 
0 0 0 0 0 2.74766e-11 0 0 0 
0 0 0 0 1.34586e-11 0 0 0 0 
0 0 0 0 0 0 0 0 0 
0 3.77094e-11 5.19224e-11 0 0 0 0 0 0 
3.95428e-11 0 0 8.69717e-11 0 0 0 0 0 
0 0 0 0 0 2.69205e-11 0 5.22419e-11 0 
5.75614e-11 0 0 2.17544e-10 0 0 0 3.82953e-11 0 
1.99147e-12 0 0 0 0 0 0 0 0 
0 0 0 0 0 0 0 0 0 
1.93044e-10 1.7703e-10 2.68635e-08 0 0 1.94099e-10 0 0 0 
0 0 5.18544e-11 0 0 2.08026e-11 0 0 0 
0 0 0 1.43039e-11 0 0 0 0 0 
0 0 0 0 0 0 0 0 0 
0 0 0 0 0 0 0 0 0 
0 0 0 0 0 0 0 0 0 
0 0 0 0 0 0 0 0 0 
0 0 0 0 0 0 0 0 0 
0 0 0 0 0 0 0 5.33734e-11 0 
0 2.87951e-11 0 0 0 2.68539e-08 0 3.87127e-10 1.08663e-10 
0 0 0 0 2.84912e-10 2.92085e-10 0 0 0 
4.95071e-11 1.97097e-10 0 0 1.16292e-10 0 0 0 0 
0 0 0 0 0 0 0 0 0 
0 0 0 3.47718e-11 1.03646e-10 9.89548e-11 0 3.04447e-10 0 
0 1.63829e-11 0 0 0 0 5.71267e-11 0 0 
0 0 0 1.03807e-10 1.77312e-11 0 3.81307e-11 0 0 
0 0 4.63454e-11 0 1.00616e-10 1.04992e-11 1.16513e-11 0 0 
9.25597e-11 0 5.47693e-12 1.49263e-11 0 0 0 5.58035e-11 0 
0 0 0 0 0 0 0 0 0 
0 0 0 0 2.90456e-11 0 4.01572e-11 0 0 
0 0 0 0 0 0 0 0 0 
0 0 0 0 0 0 4.23542e-11 0 0 
0 0 1.2757e-10 0 0 0 0 3.99782e-12 0 
0 0 0 0 0 5.37895e-11 0 0 1.48678e-11 
1.39623e-10 0 0 0 0 0 0 0 1.88939e-10 
2.74606e-10 0 0 0 9.75675e-11 0 0 2.48665e-11 0 
1.43178e-11 0 0 0 0 0 0 0 0 
0 0 0 0 0 0 0 0 0 
1.12285e-10 8.6837e-11 6.9185e-11 0 0 0 0 0 0 
0 0 1.9848e-10 2.91951e-11 4.62131e-11 1.11907e-10 0 3.11647e-08 0 
0 0 0 0 0 0 0 0 0 
0 0 0 0 0 0 0 0 0 
0 0 0 0 0 1.23549e-12 0 0 0 
0 0 0 0 0 0 0 0 0 
0 0 0 0 0 0 0 0 0 
0 0 0 0 0 0 0 0 0 
0 0 0 0 0 0 0 2.45203e-10 4.31205e-11 
0 0 0 0 2.83141e-10 1.58711e-10 5.88507e-13 5.56258e-12 0 
0 3.49077e-11 0 1.90067e-10 0 0 0 0 0 
3.18394e-11 0 0 0 0 0 0 0 0 
0 0 0 0 0 0 0 1.30708e-10 0 
0 1.31181e-10 0 0 0 0 6.17294e-11 0 3.18942e-11 
1.10662e-11 0 0 5.49719e-11 0 3.43775e-11 0 0 0 
0 0 0 0 0 5.26772e-11 2.11075e-10 3.0598e-11 0 
0 0 0 2.10374e-11 0 0 0 2.17007e-11 0 
0 9.68482e-11 0 3.32975e-13 0 0 0 0 0 
0 5.03911e-11 1.31267e-10 0 0 0 0 0 1.91143e-11 
1.90887e-11 0 5.76067e-11 0 0 0 0 0 0 
1.24032e-10 0 0 0 0 0 0 0 9.24567e-11 
0 0 0 0 0 0 0 0 0 
0 0 0 0 0 0 3.97511e-11 8.26215e-11 0 
1.87778e-11 1.06706e-10 0 0 0 0 0 0 0 
9.87483e-11 0 0 0 0 0 0 0 0 
0 2.65264e-08 0 0 0 0 0 4.65744e-11 0 
0 0 0 0 0 0 0 0 0 
2.46159e-11 0 0 0 1.186e-10 0 0 0 3.25144e-10 
0 0 0 1.47287e-10 0 0 0 0 0 
0 0 7.79992e-11 0 0 0 0 0 0 
0 0 0 4.71944e-11 0 0 0 0 0 
0 0 0 0 0 0 0 0 0 
0 0 0 0 0 0 0 0 0 
0 0 0 0 0 0 0 0 0 
0 0 0 0 0 0 0 0 0 
0 0 0 0 0 1.18633e-11 0 0 0 
0 0 0 0 0 0 1.29403e-10 0 0 
0 7.77672e-11 8.13191e-11 0 0 0 0 0 0 
0 0 0 0 0 0 0 7.65247e-12 0 
0 0 0 6.89278e-11 0 0 5.04903e-12 2.35496e-11 0 
0 0 0 0 0 0 0 0 0 