# vtk DataFile Version 5.1
vtk output
ASCII
DATASET STRUCTURED_POINTS
DIMENSIONS 250 250 1
SPACING 1 1 1
ORIGIN 0 0 0
POINT_DATA 62500
FIELD FieldData 6
feature_1 1 62500 float
0 0 0 0 0 0 0 0 0 
0 0 0 0 0 0 0 0 0 
0 0 0 0 0 0 0 0 0 
0 0 0 0 0 0 0 0 0 
0 0 0 0 0 0 0 0 0 
0 0 0 0 0 0 0 0 0 
0 0 0 0 0 0 0 0 0 
0 0 0 0 0 0 0 0 0 
0 0 0 0 0 0 0 0 0 
0 0 0 0 0 0 0 0 0 
0 0 0 0 0 0 0 0 0 
0 0 0 0 0 0 0 0 0 
0 0 0 0 0 0 0 0 0 
0 0 0 0 0 0 0 0 0 
0 0 0 0 0 0 0 0 0 
0 0 0 0 0 0 0 0 0 
0 0 0 0 0 0 0 0 0 
0 0 0 0 0 0 0 0 0 
0 0 0 0 0 0 0 0 0 
0 0 0 0 0 0 0 0 0 
0 0 0 0 0 0 0 0 0 
0 0 0 0 0 0 0 0 0 
0 0 0 0 0 0 0 0 0 
0 0 0 0 0 0 0 0 0 
0 0 0 0 0 0 0 0 0 
0 0 0 0 0 0 0 0 0 
0 0 0 0 0 0 0 0 0 
0 0 0 0 0 0 0 0 0 
0 0 0 0 0 0 0 0 0 
0 0 0 0 0 0 0 0 0 
0 0 0 0 0 0 0 0 0 
0 0 0 0 0 0 0 0 0 
0 0 0 0 0 0 0 0 0 
0 0 0 0 0 0 0 0 0 
0 0 0 0 0 0 0 0 0 
0 0 0 0 0 0 0 0 0 
0 0 0 0 0 0 0 0 0 
0 0 0 0 0 0 0 0 0 
0 0 0 0 0 0 0 0 0 
0 0 0 0 0 0 0 0 0 
0 0 0 0 0 0 0 0 0 
0 0 0 0 0 0 0 0 0 
0 0 0 0 0 0 0 0 0 
0 0 0 0 0 0 0 0 0 
0 0 0 0 0 0 0 0 0 
0 1.66492e-12 0 0 0 0 0 0 0 
0 0 0 0 0 0 0 0 0 
0 0 0 0 0 0 0 0 0 
0 0 0 0 0 0 0 0 0 
0 0 0 0 0 0 0 0 0 
0 0 0 0 0 0 0 0 0 
0 0 0 0 0 0 0 0 6.17703e-13 
0 0 0 0 0 1.81389e-13 0 0 0 
0 0 0 0 0 0 0 0 0 
0 0 0 0 0 1.61053e-12 0 0 0 
0 0 0 0 0 0 0 0 0 
0 0 0 0 0 0 0 0 0 
0 0 0 0 0 0 0 0 0 
0 0 0 0 0 0 0 0 0 
0 0 0 0 0 0 0 0 0 
0 0 0 0 5.30044e-13 0 0 0 0 
0 0 0 0 0 0 0 0 0 
0 0 0 0 0 0 0 0 0 
0 0 0 0 0 0 0 0 0 
0 0 0 0 0 0 0 0 0 
0 0 0 0 0 0 0 0 0 
0 0 0 0 0 0 0 0 0 
0 0 0 0 0 0 0 0 0 
0 0 0 0 0 0 0 0 0 
0 0 0 0 0 0 0 0 2.04433e-12 
0 0 0 0 0 0 0 0 0 
0 0 0 0 0 0 0 0 0 
0 0 0 0 0 0 0 0 0 
0 0 0 0 0 0 0 0 0 
0 0 0 0 0 0 0 0 0 
0 0 0 0 0 0 0 0 0 
0 0 0 0 0 0 0 0 0 
0 0 0 0 0 0 0 0 0 
0 0 0 0 0 0 0 0 0 
0 0 0 0 0 0 0 0 0 
0 0 0 0 0 0 0 0 0 
0 0 0 0 0 0 0 0 0 
0 0 0 0 0 0 0 0 0 
0 0 0 0 0 0 0 0 0 
0 0 0 0 0 0 0 0 0 
0 0 0 0 0 0 0 0 0 
0 0 0 0 0 0 0 0 0 
0 0 0 0 0 0 0 0 0 
0 0 0 0 0 0 0 0 0 
0 0 0 0 0 0 0 0 0 
0 0 0 0 0 0 0 0 0 
0 0 0 0 0 0 0 0 0 
0 0 0 0 0 0 0 0 0 
0 0 0 0 0 0 0 0 0 
0 0 0 0 0 0 0 0 0 
0 0 0 0 0 0 0 0 0 
0 0 0 0 0 0 0 0 0 
0 0 0 0 0 0 0 0 0 
0 0 0 0 0 0 0 0 0 
0 0 0 0 0 0 0 0 0 
0 0 0 0 0 0 0 0 0 
0 0 0 0 0 0 0 0 0 
0 0 0 0 0 0 0 0 0 
0 0 0 0 0 0 0 0 0 
0 0 0 0 0 0 0 0 0 
0 0 0 0 0 0 0 0 0 
0 0 0 0 0 0 0 0 0 
0 0 0 0 0 0 0 0 0 
0 0 0 0 0 0 0 0 0 
0 0 0 0 0 0 0 0 0 
0 0 0 0 0 0 0 0 0 
0 0 9.62862e-13 0 0 0 0 0 0 
0 0 0 0 0 0 0 0 0 
0 0 0 0 0 0 0 0 0 
0 0 0 0 0 0 0 0 0 
0 0 0 0 0 0 0 0 0 
0 0 0 0 0 0 0 0 0 
0 0 0 0 0 1.18346e-12 0 0 0 
0 0 0 0 0 0 0 0 0 
0 4.28322e-12 0 0 0 0 0 0 0 
0 0 0 0 0 0 0 0 0 
0 0 0 0 0 0 0 0 0 
0 0 0 0 0 0 0 0 0 
0 0 0 0 0 0 0 0 0 
0 0 0 0 0 0 0 0 0 
0 0 0 0 0 0 0 0 0 
0 0 0 0 0 0 0 0 0 
0 0 0 0 0 0 0 0 0 
0 0 0 0 0 0 0 2.83696e-12 0 
0 0 0 0 0 0 0 0 0 
0 0 0 0 0 0 0 0 0 
0 0 0 0 0 2.4273e-12 0 0 0 
0 0 0 0 1.41276e-12 0 0 0 0 
0 0 0 0 0 0 0 0 0 
0 0 0 0 0 0 0 0 0 
0 0 0 0 0 0 0 0 0 
0 0 0 0 0 0 0 0 0 
0 0 0 0 0 0 0 0 0 
2.93516e-12 0 0 0 0 0 0 0 0 
0 0 0 0 0 0 0 0 0 
0 0 0 0 0 0 0 0 0 
0 0 0 0 0 0 0 6.42415e-13 0 
0 0 0 0 0 0 0 0 0 
0 0 0 0 0 0 0 0 0 
0 0 0 0 0 0 0 0 0 
0 0 0 0 0 0 0 0 0 
0 0 0 0 0 0 0 0 0 
0 0 0 0 0 0 0 0 0 
0 0 0 0 0 0 0 0 0 
0 0 0 0 0 0 0 0 0 
0 0 0 0 0 0 0 0 0 
0 0 0 0 0 0 0 0 0 
0 0 0 0 0 0 0 0 0 
0 0 0 0 0 0 0 0 0 
0 0 0 0 0 0 0 0 0 
0 0 0 0 0 0 0 0 0 
0 0 0 0 0 0 0 0 0 
0 0 0 0 0 0 0 0 0 
0 0 0 0 0 0 0 0 1.12588e-12 
0 0 0 0 0 0 0 0 0 
0 0 0 0 0 0 0 0 0 
0 0 0 0 0 0 0 0 0 
0 0 0 0 0 0 0 0 0 
0 0 0 0 0 0 0 0 0 
0 0 0 0 0 0 0 0 0 
0 0 0 0 0 0 0 0 0 
0 0 0 0 0 0 0 0 0 
0 0 0 0 0 0 0 0 0 
0 0 0 0 0 0 0 0 0 
0 0 0 0 0 0 0 0 0 
0 0 0 0 0 0 0 0 0 
0 0 0 0 0 0 3.74725e-13 0 0 
0 0 0 0 0 0 0 0 0 
0 0 0 0 0 0 0 0 0 
0 0 0 0 0 7.85063e-13 0 0 0 
0 0 0 0 0 0 0 0 0 
0 0 0 0 0 0 0 0 0 
0 0 0 0 0 0 0 0 0 
0 0 0 0 0 0 0 0 0 
0 0 0 0 0 0 0 0 0 
0 0 0 0 0 0 0 4.04118e-13 0 
0 0 0 0 0 0 0 0 0 
0 0 0 0 0 0 0 0 0 
0 0 0 0 0 0 0 0 0 
0 0 0 0 0 0 0 0 0 
0 0 0 0 0 0 0 0 0 
0 0 0 0 0 0 0 0 0 
0 0 0 0 0 0 0 0 0 
0 0 0 0 0 0 0 0 0 
0 0 0 0 0 0 0 0 0 
0 0 0 0 0 0 0 0 0 
0 0 0 0 0 0 0 0 0 
0 0 0 0 0 0 0 0 0 
0 0 0 0 0 0 0 0 0 
0 0 0 0 0 0 0 0 0 
0 0 0 0 0 0 0 0 0 
0 0 0 0 0 0 0 0 0 
0 0 0 0 0 0 0 0 0 
0 0 0 0 0 0 0 0 0 
0 0 0 0 0 0 0 0 0 
0 0 0 0 0 0 0 0 0 
0 0 0 0 0 0 0 0 0 
0 0 0 0 0 0 0 0 0 
0 0 0 0 0 0 1.60563e-12 0 0 
0 0 0 0 0 0 0 0 0 
0 0 0 0 0 0 0 0 0 
0 0 0 0 0 0 0 0 0 
0 0 0 0 0 0 0 0 0 
0 0 0 0 0 0 0 0 0 
0 0 0 0 0 0 0 0 0 
0 0 0 0 0 0 0 0 0 
0 0 0 0 0 0 0 0 0 
0 0 0 0 0 0 0 0 0 
0 0 0 0 0 0 0 0 0 
0 0 0 0 0 0 0 0 0 
0 0 0 0 0 0 0 0 0 
0 0 0 0 0 0 0 0 2.31712e-12 
0 0 0 0 0 0 0 0 0 
0 0 0 0 0 0 0 0 0 
0 0 0 0 0 0 0 0 0 
0 0 0 2.39264e-12 0 0 0 0 0 
0 0 0 0 0 0 0 0 0 
0 0 0 0 0 0 0 0 0 
0 0 0 0 0 0 0 0 0 
0 0 0 0 0 0 0 0 0 
0 0 0 2.56878e-12 0 0 0 0 0 
0 0 0 0 0 0 0 0 0 
0 0 0 0 0 0 0 0 0 
0 0 0 0 0 0 0 0 0 
0 0 0 0 0 0 0 0 0 
0 0 0 0 0 0 0 0 0 
0 0 0 0 0 0 2.08844e-12 0 0 
0 0 0 0 0 0 0 0 0 
0 0 0 0 0 1.16912e-12 0 0 0 
0 0 0 0 0 0 0 0 0 
0 0 0 0 0 0 0 0 0 
0 0 0 0 0 0 0 0 0 
0 0 0 0 0 0 0 0 0 
0 0 0 0 0 0 0 0 0 
0 0 0 0 0 0 0 0 0 
0 0 0 0 0 0 0 0 0 
0 0 0 0 0 0 0 0 0 
0 0 0 0 0 0 0 0 0 
0 0 0 0 0 0 0 0 0 
0 0 0 0 0 0 0 0 0 
0 0 0 0 0 0 0 0 0 
0 0 0 0 0 0 0 0 0 
0 0 0 0 0 0 0 0 0 
0 0 0 0 0 0 0 0 0 
0 0 0 0 0 0 0 0 0 
0 0 0 0 0 0 0 0 0 
0 0 0 0 0 0 0 0 0 
0 0 0 0 0 0 0 0 0 
0 0 0 0 0 0 0 0 0 
0 0 0 0 0 0 0 0 0 
0 0 0 0 0 0 0 0 0 
0 0 0 0 0 0 0 0 0 
0 0 0 0 0 0 0 0 0 
0 0 0 0 0 0 0 0 0 
0 0 0 0 0 0 0 0 0 
0 0 0 0 0 0 0 0 0 
0 0 0 0 0 0 0 0 0 
0 0 0 0 0 0 0 0 0 
0 0 0 0 0 0 0 0 0 
0 0 0 0 0 0 0 0 0 
0 0 0 0 1.9516e-12 0 0 0 0 
0 0 0 0 0 0 0 0 0 
0 0 0 0 0 0 0 0 9.68069e-13 
0 0 0 0 0 0 0 0 0 
0 0 0 0 0 0 0 0 0 
0 0 0 0 0 0 0 0 0 
0 0 0 0 0 0 0 0 0 
0 0 0 0 0 0 0 0 0 
0 0 0 0 0 0 0 0 0 
0 0 0 6.62562e-13 0 0 0 0 0 
0 0 0 0 0 0 0 0 0 
0 0 0 0 0 0 0 0 0 
0 0 0 0 0 0 0 0 0 
0 0 0 0 0 0 0 0 0 
0 0 0 0 0 0 0 0 0 
0 0 0 0 0 0 0 0 0 
0 0 0 0 0 0 0 0 0 
0 0 0 0 0 0 0 0 0 
0 0 0 6.90789e-13 0 0 0 0 0 
0 0 0 0 0 0 0 0 0 
3.0599e-13 0 0 0 0 0 0 0 0 
0 0 0 0 0 0 0 0 0 
0 0 3.12777e-12 0 0 0 0 0 0 
0 0 0 0 0 0 0 0 0 
0 0 0 0 0 0 0 0 0 
0 0 9.42847e-13 0 0 0 0 0 0 
0 0 0 0 0 0 0 0 0 
0 0 0 0 0 0 0 0 0 
0 0 0 0 0 0 0 0 0 
0 0 0 0 0 1.9314e-12 0 0 0 
0 0 0 0 0 0 0 0 0 
0 0 0 0 0 0 0 0 0 
0 0 0 0 0 0 0 0 0 
0 0 0 0 0 0 0 0 0 
3.62632e-12 0 0 0 0 0 0 0 0 
0 0 0 0 0 0 0 0 0 
0 0 0 0 0 0 0 0 0 
0 0 0 0 0 0 0 0 0 
0 0 0 0 0 0 0 0 0 
0 0 0 0 0 0 0 0 0 
0 0 0 0 0 0 0 0 0 
0 0 0 0 0 0 0 0 3.8675e-12 
0 0 0 0 0 0 0 0 0 
0 0 0 0 0 0 0 0 0 
0 0 0 0 0 0 0 0 0 
0 0 0 0 0 0 0 0 0 
0 0 0 0 0 0 0 0 0 
0 0 0 0 0 0 0 0 0 
0 0 0 0 0 0 0 0 0 
0 0 0 0 6.46904e-14 0 0 0 0 
0 0 0 0 0 0 0 0 0 
0 0 0 0 0 0 0 0 0 
0 0 0 0 0 0 0 0 0 
0 0 0 0 0 0 0 0 0 
0 0 0 0 0 0 0 0 0 
0 0 0 0 0 0 0 0 0 
0 0 0 0 0 0 0 0 0 
0 0 0 0 0 0 0 0 0 
0 0 0 0 0 0 0 0 0 
0 0 0 0 0 0 0 0 0 
0 0 0 0 0 0 0 0 0 
0 0 0 0 0 0 0 0 0 
0 0 0 0 0 0 0 0 0 
0 0 0 0 0 0 0 0 0 
0 0 0 0 0 0 0 0 0 
0 0 0 0 0 0 0 0 0 
0 0 0 0 0 0 0 0 0 
0 0 0 2.4405e-13 0 0 0 0 0 
0 0 0 0 0 0 0 0 0 
0 0 0 0 0 0 0 4.89572e-13 0 
0 0 0 0 0 0 0 0 0 
0 0 0 0 0 0 0 0 0 
0 0 0 0 0 0 0 0 0 
0 0 0 0 0 0 0 0 0 
0 0 0 0 0 0 0 0 0 
0 0 0 0 0 0 0 0 0 
0 0 0 0 0 0 0 0 0 
0 0 0 0 0 0 0 0 0 
0 0 0 0 0 0 0 0 0 
0 0 0 0 0 0 0 0 0 
0 0 0 0 0 0 0 0 0 
0 0 0 0 0 0 0 0 0 
0 0 0 0 0 0 0 0 0 
0 0 0 0 0 0 0 0 0 
0 0 0 0 0 0 0 0 0 
0 0 0 0 0 0 0 0 0 
0 0 0 0 0 0 0 0 0 
0 0 0 0 0 0 0 0 0 
0 0 0 0 0 0 0 0 0 
0 0 0 0 0 0 0 0 0 
0 0 0 0 0 0 0 0 0 
0 0 0 0 0 0 0 0 0 
0 0 0 0 0 0 0 0 0 
0 0 0 0 0 0 0 0 0 
0 0 0 0 0 0 0 0 0 
0 0 0 0 0 0 0 0 0 
0 0 0 0 0 0 0 0 0 
0 0 0 0 0 0 0 0 0 
0 0 0 0 0 0 0 0 0 
0 0 0 0 0 0 0 0 0 
0 0 0 0 0 0 0 0 0 
0 0 0 0 0 0 0 0 0 
0 0 0 0 0 0 0 0 0 
0 0 0 0 0 0 0 0 0 
0 0 0 0 0 0 0 0 0 
0 0 0 0 0 0 0 0 0 
0 0 0 0 0 0 0 0 0 
0 0 0 0 0 0 0 0 0 
0 0 0 0 0 0 0 0 0 
0 0 0 0 0 0 0 0 0 
0 0 0 0 0 0 0 0 0 
0 0 0 0 0 0 0 0 0 
0 2.28741e-12 0 0 0 0 0 0 0 
0 0 0 0 0 0 0 0 0 
0 0 0 0 0 0 0 0 0 
0 0 0 0 0 0 0 0 0 
0 0 0 4.48178e-13 0 0 0 0 0 
0 0 0 0 0 0 0 0 0 
0 0 0 0 0 0 0 0 0 
0 0 0 0 0 0 0 0 0 
0 0 0 0 0 0 0 0 0 
0 0 0 0 0 0 0 0 0 
0 0 0 0 0 0 0 0 0 
0 0 0 0 0 0 0 0 0 
0 0 0 0 0 0 0 0 0 
0 0 0 0 0 0 0 0 0 
0 0 0 0 0 0 0 0 0 
0 0 0 0 0 0 0 0 0 
0 0 0 0 0 0 0 0 0 
0 0 0 0 0 0 0 0 0 
0 0 0 0 0 0 0 0 0 
0 0 0 0 0 0 0 0 0 
0 0 0 0 0 0 0 0 0 
0 0 0 0 0 0 0 0 0 
0 0 0 0 0 0 0 0 0 
0 0 0 0 0 0 0 0 0 
0 0 0 0 0 0 0 0 0 
0 0 0 0 0 0 0 0 0 
0 0 0 0 0 0 0 0 0 
0 0 0 0 0 0 0 0 0 
0 0 0 0 0 0 0 0 0 
0 0 0 0 0 0 0 0 0 
0 0 0 0 0 0 0 0 0 
0 0 0 0 0 0 0 0 0 
0 0 0 0 0 0 0 0 0 
0 0 0 0 0 0 0 0 0 
0 0 0 0 0 0 0 0 0 
1.56365e-13 0 0 0 0 0 0 0 0 
0 0 0 0 0 0 0 0 0 
0 0 0 0 0 0 0 0 0 
0 0 0 0 1.67006e-12 0 0 0 0 
0 0 0 0 0 0 0 0 0 
0 0 0 0 0 0 0 0 0 
0 0 0 0 0 0 0 0 0 
0 0 0 0 0 0 0 0 0 
0 0 0 0 0 0 0 0 0 
0 0 0 0 0 0 0 0 0 
0 1.20514e-12 0 0 0 0 0 0 0 
0 0 0 0 0 0 0 0 0 
0 0 0 0 4.67574e-12 0 0 0 0 
0 0 0 0 0 0 0 0 0 
0 0 0 0 0 0 0 0 0 
0 0 0 0 0 0 0 0 0 
0 0 0 0 0 0 0 0 0 
0 0 0 0 0 0 0 0 0 
0 0 0 0 0 0 0 0 0 
0 0 0 0 0 0 0 0 0 
0 0 0 0 0 0 0 0 0 
0 0 0 0 0 0 0 0 0 
0 0 0 0 0 0 0 0 0 
0 0 0 0 0 0 0 0 0 
0 0 0 0 0 0 0 0 0 
0 0 0 0 0 0 0 0 0 
0 0 0 0 0 0 0 0 0 
0 0 0 0 0 0 0 0 0 
0 0 0 0 0 0 0 0 0 
0 0 0 0 0 0 0 0 1.66623e-12 
0 0 0 0 0 0 0 0 0 
0 0 0 0 0 0 0 5.36268e-12 0 
0 0 0 0 0 0 0 0 0 
0 0 0 0 2.31071e-12 0 0 0 0 
0 0 0 0 0 0 0 0 0 
0 0 0 0 0 0 0 0 0 
0 0 0 0 0 0 0 0 0 
0 0 0 0 0 0 0 0 0 
0 0 0 0 0 0 0 0 0 
0 0 0 0 0 0 0 0 0 
0 0 0 0 0 0 0 0 0 
0 0 0 0 0 0 0 0 0 
0 0 0 0 0 0 0 0 0 
0 0 0 0 0 0 0 0 0 
0 0 0 0 0 0 0 0 0 
0 0 0 0 0 0 0 0 0 
0 0 0 0 0 0 0 0 0 
0 0 0 0 0 0 0 0 0 
0 0 0 0 7.30844e-12 0 0 0 0 
1.83896e-12 0 0 0 0 0 0 0 0 
0 0 0 0 0 0 0 0 0 
0 0 0 0 0 0 0 0 0 
0 0 0 0 0 0 0 0 0 
0 0 0 0 0 0 0 0 0 
0 0 0 0 0 0 0 0 0 
0 0 0 0 0 0 0 0 0 
0 0 0 0 0 0 0 0 0 
0 0 0 0 0 0 0 0 0 
0 0 0 0 0 0 0 0 0 
0 0 0 0 0 0 0 0 0 
0 0 0 0 0 0 0 0 0 
0 0 0 0 0 0 0 0 0 
0 0 0 0 0 0 0 0 0 
0 0 0 0 0 0 0 0 0 
0 0 0 0 0 0 0 0 0 
0 0 0 0 0 0 0 0 0 
0 0 0 0 0 0 0 0 0 
0 0 4.42226e-13 0 0 0 0 0 0 
0 7.80762e-12 0 0 0 0 0 0 0 
0 0 0 0 0 0 0 0 0 
0 0 0 0 0 0 0 0 0 
0 0 0 2.56597e-12 0 0 0 0 0 
0 0 0 0 0 0 0 0 0 
0 0 0 0 0 0 0 0 0 
0 0 0 0 0 0 0 0 0 
0 0 0 0 0 0 0 0 0 
0 0 0 0 0 0 0 0 0 
0 0 0 2.24752e-12 0 0 0 0 0 
0 0 0 0 0 0 0 0 0 
0 0 0 0 4.75538e-12 0 0 0 0 
0 0 0 0 0 0 0 0 0 
0 0 0 0 0 0 0 0 0 
0 0 0 0 0 0 0 0 0 
0 0 0 0 0 0 0 0 0 
0 0 0 0 0 0 0 0 0 
0 0 0 0 0 0 0 0 0 
0 0 0 0 0 0 0 0 0 
0 0 0 0 0 0 0 0 0 
0 0 0 0 0 0 0 0 0 
0 0 0 0 0 0 0 0 0 
0 0 0 0 0 0 0 0 0 
0 0 0 0 0 0 0 0 1.84385e-12 
0 0 0 0 0 0 0 0 0 
0 0 0 0 0 0 0 0 0 
0 0 0 0 0 0 0 0 0 
0 0 0 0 0 0 0 0 9.44872e-12 
0 0 0 0 0 0 0 0 0 
0 0 0 0 0 0 0 0 0 
0 0 0 5.74588e-12 0 0 0 0 0 
0 0 0 0 0 0 0 6.68011e-13 0 
0 0 0 9.75818e-12 0 0 0 0 0 
0 0 0 0 0 0 0 0 0 
0 0 0 8.1044e-13 0 0 0 0 0 
0 0 6.29609e-12 0 0 0 0 0 0 
0 0 0 0 0 0 0 0 0 
0 0 0 0 0 0 0 0 0 
0 0 0 0 0 0 0 0 0 
0 0 0 0 0 0 0 0 0 
0 0 0 0 0 0 0 0 0 
0 0 0 0 0 0 0 0 0 
0 0 0 0 0 0 0 0 0 
0 0 0 0 0 0 0 0 0 
0 0 0 0 0 0 0 0 0 
0 0 0 0 0 0 0 0 0 
1.27438e-13 0 0 0 0 0 0 0 0 
0 0 0 0 0 0 0 0 0 
0 0 0 0 0 0 0 0 0 
0 0 0 0 0 0 0 0 0 
0 0 0 0 0 0 0 0 0 
0 0 0 0 0 0 0 0 0 
0 0 0 0 0 0 0 0 0 
0 0 0 0 0 0 0 0 0 
0 0 0 0 0 3.31608e-12 0 0 0 
0 0 0 0 0 0 0 0 0 
0 0 0 0 0 0 0 0 0 
0 0 0 0 0 0 0 0 9.72412e-12 
0 0 0 0 6.83721e-13 0 0 0 0 
0 0 0 0 0 0 0 0 0 
0 0 0 0 0 0 0 3.43855e-12 0 
0 0 0 0 0 0 0 0 0 
0 0 0 0 0 0 0 0 0 
0 0 0 0 0 0 0 0 0 
3.8312e-13 0 0 0 0 8.14498e-12 0 0 0 
0 0 0 0 0 0 0 0 0 
0 0 0 0 0 0 0 0 0 
0 3.35136e-13 0 0 0 0 0 3.33639e-14 0 
0 0 0 0 0 0 0 0 0 
0 0 0 0 0 0 0 0 0 
0 0 0 0 0 0 0 0 0 
0 0 0 0 0 0 0 0 0 
0 0 0 0 0 0 0 0 0 
0 0 0 0 0 0 0 0 0 
0 0 0 0 0 0 0 0 0 
0 0 0 0 0 0 0 0 0 
0 0 0 0 0 0 0 0 4.18938e-12 
0 0 0 0 0 0 0 0 0 
0 0 0 0 0 0 0 0 0 
0 0 0 0 0 0 0 0 0 
0 0 0 0 0 0 0 0 0 
0 0 0 0 0 0 0 0 0 
0 0 0 0 0 0 0 0 0 
1.31607e-11 0 0 0 2.95901e-11 1.43951e-11 0 0 0 
0 0 0 0 0 0 0 0 0 
0 2.72887e-11 0 0 2.24777e-13 0 0 0 2.93398e-11 
0 0 0 0 0 0 0 0 0 
0 0 0 0 0 0 0 0 0 
0 0 0 0 0 0 0 0 0 
0 0 0 0 0 0 0 0 0 
0 0 0 0 0 0 0 0 0 
0 0 0 0 0 0 0 0 0 
0 0 0 0 0 0 0 0 0 
0 0 0 0 0 0 0 0 0 
0 0 0 0 0 0 0 0 0 
0 0 0 0 0 0 0 0 0 
0 0 0 0 0 0 0 0 0 
0 0 0 0 0 0 0 0 0 
0 6.77961e-13 0 0 0 0 0 0 0 
0 0 0 0 0 0 0 0 0 
0 0 5.94837e-12 0 0 0 0 0 0 
0 0 0 0 0 0 0 0 0 
0 0 0 0 0 0 1.99718e-12 0 0 
0 0 0 0 0 0 0 0 0 
0 0 0 0 0 0 0 0 0 
0 0 0 0 0 3.28502e-12 0 0 0 
0 0 0 0 0 0 0 0 0 
0 0 0 0 0 0 0 0 0 
0 3.23551e-13 0 0 0 0 0 0 0 
0 0 9.9337e-12 0 0 0 0 0 0 
0 0 0 0 0 1.65487e-11 1.46273e-11 0 0 
0 0 0 0 0 0 0 0 0 
0 0 0 0 0 0 0 0 0 
0 0 0 0 0 0 0 0 0 
7.80591e-12 0 0 0 0 2.25714e-11 0 0 0 
0 0 0 0 0 1.48765e-11 0 0 0 
0 0 0 0 0 0 0 0 0 
0 0 0 0 0 0 0 0 0 
0 0 0 0 0 0 0 0 0 
0 0 0 0 0 1.20006e-11 0 1.43486e-11 0 
0 0 0 0 0 0 0 0 0 
0 0 0 0 0 3.57221e-12 0 0 0 
0 0 0 0 0 0 0 0 0 
0 0 0 0 0 0 0 0 0 
0 0 0 0 0 0 0 0 0 
0 0 0 0 0 0 0 0 0 
0 0 0 0 0 0 0 1.06864e-12 0 
0 4.57824e-12 0 0 0 0 0 0 0 
0 0 0 0 0 0 0 0 0 
0 0 0 0 0 0 0 0 0 
0 0 0 0 0 0 0 0 0 
0 0 0 0 0 0 0 0 0 
0 0 2.68612e-12 0 0 0 0 0 0 
0 0 0 0 0 0 0 0 0 
0 0 0 0 0 0 0 0 0 
0 0 0 0 0 0 0 0 0 
0 0 0 0 0 0 0 0 0 
0 0 0 0 0 0 0 0 0 
0 0 0 0 0 1.44363e-11 0 2.98515e-11 0 
0 0 0 0 0 0 0 0 0 
0 0 0 0 2.6857e-11 0 2.69412e-11 0 0 
8.11802e-12 0 0 0 0 0 0 0 0 
3.22287e-11 0 0 2.1274e-12 0 0 0 0 0 
0 1.57173e-11 2.25982e-11 0 0 0 0 0 0 
0 0 0 0 0 0 0 0 0 
0 0 0 0 7.26572e-12 0 0 0 0 
0 0 0 0 0 0 7.19231e-12 0 0 
0 0 0 0 0 0 0 0 0 
0 0 0 0 0 0 0 0 0 
0 0 0 0 0 0 0 0 0 
0 0 0 0 0 0 0 0 0 
0 0 0 0 0 0 0 0 0 
0 0 0 0 0 0 0 0 0 
0 0 0 0 0 0 0 0 0 
0 0 3.62332e-12 0 3.99525e-12 0 0 0 0 
0 0 0 0 0 0 0 0 0 
0 0 0 0 0 0 0 0 0 
0 0 0 0 0 0 0 0 0 
0 0 0 0 0 0 0 0 0 
0 0 0 0 0 0 0 0 0 
0 0 0 0 0 0 0 0 0 
0 0 0 0 2.1545e-12 0 0 0 0 
0 0 0 0 0 0 0 0 0 
0 0 0 0 0 0 0 0 0 
0 0 1.18716e-11 1.391e-11 0 0 0 1.11863e-11 0 
0 0 0 0 0 0 0 0 0 
0 2.01891e-11 0 7.11993e-12 0 0 5.3147e-12 0 0 
0 0 1.35839e-11 0 0 0 0 0 0 
0 0 0 0 0 0 0 0 0 
0 0 0 0 0 0 0 1.65408e-11 0 
0 0 0 0 0 0 0 0 0 
0 2.98978e-11 0 0 0 0 0 0 0 
1.21007e-11 0 0 0 0 0 0 0 0 
0 0 0 0 0 0 0 0 0 
1.14064e-11 0 0 0 0 0 0 1.13203e-11 0 
0 0 0 0 0 0 1.84048e-11 0 0 
0 0 0 0 0 0 0 0 0 
0 0 0 0 0 0 0 0 0 
0 0 0 0 0 0 0 0 3.41211e-14 
0 0 0 0 0 0 0 0 0 
0 0 0 0 0 0 0 0 0 
0 0 0 0 0 0 0 0 3.94332e-12 
0 0 0 1.66261e-11 0 0 0 0 0 
0 0 0 0 4.57595e-12 0 0 0 0 
0 0 0 0 0 0 0 0 0 
0 0 0 0 0 0 0 0 0 
0 0 0 0 0 0 0 0 0 
0 0 0 0 0 0 0 0 0 
0 0 0 0 0 0 0 0 0 
0 0 0 0 3.70393e-12 0 0 0 0 
0 0 0 0 0 0 0 0 0 
0 0 0 0 0 0 0 0 0 
0 0 0 0 0 0 4.97003e-13 0 0 
0 0 1.57599e-11 1.48143e-11 0 2.01657e-11 0 0 0 
4.5611e-11 0 4.43665e-11 0 0 0 0 0 0 
2.32193e-11 0 0 0 0 0 0 0 0 
0 3.27844e-11 0 0 0 0 0 5.44385e-11 3.36764e-13 
0 0 0 0 0 0 0 5.56623e-12 0 
0 0 0 0 0 0 0 0 0 
3.93126e-11 0 0 3.63428e-12 0 1.34481e-11 0 0 0 
0 0 0 0 0 0 3.84166e-12 0 0 
0 0 0 0 0 0 0 0 0 
2.71605e-11 0 0 0 0 0 0 0 0 
0 0 0 0 0 0 0 0 0 
0 0 0 1.08103e-11 0 0 1.49416e-11 0 0 
0 0 0 0 0 0 0 0 0 
0 0 0 0 0 0 0 0 0 
0 0 0 0 0 0 0 0 0 
0 0 0 0 0 0 0 0 0 
0 0 0 5.37188e-12 0 0 0 0 0 
0 0 0 0 0 0 7.78145e-13 0 0 
1.21103e-11 0 0 0 0 0 0 0 0 
0 0 0 0 0 0 0 0 0 
0 0 0 0 0 0 0 0 0 
0 0 0 0 0 0 0 0 0 
0 0 0 0 0 0 0 0 0 
1.28383e-13 0 0 0 0 0 0 0 0 
0 0 0 0 0 0 0 0 0 
0 0 0 0 0 0 1.61227e-11 0 0 
2.68703e-11 0 4.11896e-11 0 0 0 0 0 0 
0 0 0 0 0 0 0 0 0 
0 0 0 0 2.78553e-11 9.50401e-13 3.22353e-11 0 0 
2.73697e-11 3.19634e-11 0 0 0 3.9152e-11 0 0 2.17309e-12 
0 0 0 0 0 0 0 0 0 
0 0 0 2.16093e-11 7.43935e-11 0 0 2.68551e-11 0 
4.51313e-11 0 0 0 0 0 0 0 0 
0 4.21179e-11 0 5.01012e-11 0 0 0 0 0 
0 0 0 0 1.27639e-11 0 0 0 1.63575e-11 
0 0 0 0 0 0 0 0 0 
0 0 0 0 0 0 0 0 0 
0 0 0 5.11471e-11 2.06085e-11 0 0 0 0 
0 0 0 0 4.64779e-12 0 0 0 0 
0 1.16394e-11 0 0 0 0 0 0 0 
0 0 1.51232e-11 0 0 0 0 0 0 
2.69126e-12 0 0 0 0 0 1.62832e-12 0 0 
0 0 0 0 0 0 0 0 0 
0 0 0 0 0 0 0 0 0 
0 0 0 0 0 0 0 0 2.59643e-11 
0 0 0 0 0 0 0 0 0 
0 0 0 0 0 0 0 0 0 
0 0 0 0 0 0 0 1.57431e-12 0 
0 0 0 0 0 0 0 0 0 
0 0 0 0 0 0 0 0 0 
0 0 0 0 0 0 0 0 0 
0 0 0 0 0 0 0 0 0 
0 0 0 0 0 0 0 0 0 
0 0 0 0 0 0 0 0 0 
3.42253e-11 0 0 0 5.17909e-11 0 0 0 0 
0 0 0 0 0 0 0 0 0 
0 0 1.25037e-11 2.19504e-11 0 0 0 0 0 
0 0 0 0 2.12511e-11 0 0 0 0 
0 0 0 0 0 7.782e-11 0 0 1.64583e-12 
1.91109e-11 0 5.60039e-11 9.90237e-11 3.86059e-13 0 0 0 0 
0 0 0 0 0 0 0 0 0 
5.12975e-11 5.32901e-11 0 0 6.00113e-11 0 0 0 0 
3.65084e-11 0 0 0 0 0 0 0 0 
0 0 7.19177e-13 0 3.07476e-11 0 0 0 0 
0 2.69382e-12 0 0 0 0 0 0 0 
0 0 0 3.09199e-12 4.69493e-11 0 0 1.27823e-11 0 
1.09828e-11 0 0 1.78546e-11 0 0 0 0 0 
0 0 0 0 0 0 0 0 0 
0 8.69638e-12 1.2265e-11 7.42115e-15 0 0 0 0 0 
0 2.42488e-11 0 6.92132e-12 0 0 0 0 0 
0 0 0 0 0 0 0 0 0 
0 0 0 0 0 0 0 6.45361e-12 0 
0 9.78481e-12 0 0 0 0 0 0 0 
0 0 0 0 4.71122e-12 0 0 0 0 
0 0 3.24063e-12 0 0 0 0 0 0 
0 0 0 0 0 0 0 0 0 
0 0 0 0 0 0 0 0 0 
0 0 0 0 0 0 0 0 0 
0 0 0 0 0 0 0 0 0 
0 0 0 0 0 0 0 0 0 
0 0 3.74645e-13 0 0 1.42177e-11 0 0 0 
0 4.32001e-12 0 0 1.38566e-11 0 0 0 0 
0 0 3.71349e-11 0 0 0 0 4.58093e-11 0 
0 0 0 0 0 1.26681e-11 0 0 0 
0 0 0 0 8.62081e-11 0 2.02032e-10 0 0 
0 0 4.80821e-11 4.07498e-11 2.34944e-11 0 0 3.25669e-11 0 
0 0 0 0 0 3.33702e-12 0 0 7.77916e-11 
0 0 0 0 0 0 7.8006e-11 0 0 
0 0 0 0 7.17211e-11 0 0 4.86022e-11 0 
0 0 0 0 0 2.08755e-11 0 0 0 
2.94443e-11 0 0 0 0 0 3.1785e-11 0 0 
0 0 0 0 0 0 0 0 4.99651e-11 
0 0 0 0 8.58082e-11 0 1.30201e-10 0 0 
0 3.381e-11 0 0 0 0 2.81963e-11 0 0 
5.69385e-11 0 4.0426e-11 0 0 2.48085e-11 0 0 0 
0 0 0 0 1.57577e-11 0 0 3.65496e-11 0 
0 0 2.95057e-11 3.07642e-11 0 0 0 0 0 
0 0 0 0 0 0 0 0 0 
0 0 0 0 0 0 0 0 0 
0 0 0 0 0 0 0 0 0 
0 0 2.05196e-11 4.39729e-12 0 0 0 3.49525e-11 0 
0 0 0 0 0 0 0 0 0 
0 0 0 0 0 0 0 0 0 
0 0 0 0 0 0 0 0 0 
0 0 0 0 0 0 0 0 0 
0 0 0 0 0 0 0 0 0 
0 0 0 0 0 0 0 0 0 
0 0 0 0 0 0 0 3.72887e-11 0 
0 0 0 0 1.11385e-11 7.02175e-12 0 0 0 
0 0 0 0 0 4.73366e-11 0 0 0 
0 2.43401e-10 0 0 6.45459e-11 0 0 0 0 
2.76103e-12 0 0 1.37358e-11 0 0 0 3.30611e-13 0 
0 0 0 2.02368e-10 2.43274e-08 0 0 0 4.4807e-11 
0 3.018e-11 0 0 0 0 0 0 0 
0 0 0 0 2.39271e-10 0 4.90378e-12 0 4.19221e-11 
0 1.10447e-11 0 2.38974e-11 0 0 0 0 5.78172e-11 
0 1.3317e-12 1.02701e-12 0 0 0 0 0 0 
0 0 0 0 0 0 0 0 3.96911e-11 
0 0 2.02329e-11 0 1.1629e-11 0 0 0 0 
0 0 4.76732e-11 0 0 0 0 0 0 
0 0 6.52424e-11 6.91756e-11 0 0 0 0 0 
1.25884e-10 1.41373e-11 0 0 0 9.29895e-11 5.82034e-11 0 0 
0 0 0 0 0 0 0 0 0 
0 2.04143e-11 0 0 0 0 0 0 0 
2.40879e-11 0 0 0 0 2.24886e-11 0 0 0 
0 0 0 7.39129e-13 0 0 0 0 0 
0 0 0 0 0 0 0 6.45932e-12 0 
0 0 1.58181e-11 0 6.5251e-12 3.18165e-11 0 0 0 
0 0 0 7.20333e-11 0 4.33595e-11 0 0 0 
0 0 0 0 0 0 1.93063e-12 0 0 
0 0 0 0 0 0 0 0 0 
0 0 0 0 0 0 0 0 0 
0 0 0 0 4.25724e-12 0 0 0 0 
0 0 0 0 0 0 0 0 0 
0 0 0 0 0 0 0 0 0 
0 0 0 4.55048e-12 1.90795e-11 8.96499e-12 0 0 6.43462e-11 
0 0 0 4.7862e-11 3.83236e-12 3.08721e-11 0 0 0 
0 2.61563e-12 0 0 0 0 0 0 0 
0 3.84481e-11 0 0 0 3.15446e-11 7.50679e-11 0 1.05884e-11 
0 1.30386e-11 0 0 8.42079e-12 1.49203e-11 4.62282e-11 0 0 
0 0 0 1.74808e-10 0 0 4.54442e-11 0 1.87172e-11 
0 0 0 0 0 0 0 1.83656e-11 5.45234e-11 
3.35846e-11 1.31982e-10 2.54821e-08 0 0 0 0 0 0 
2.53172e-11 0 0 0 2.64942e-08 0 0 1.29283e-10 0 
0 6.2676e-12 5.30436e-11 0 2.93937e-11 1.01692e-10 1.43961e-10 0 0 
0 0 0 4.8237e-11 3.82808e-11 1.0786e-11 0 0 0 
0 0 0 2.00793e-11 0 0 0 0 0 
7.00414e-12 0 1.08107e-10 6.92016e-11 0 0 0 0 0 
0 0 0 2.52192e-08 0 0 0 2.59447e-11 0 
8.6449e-11 0 0 1.77417e-10 5.19329e-11 0 0 6.96628e-11 7.73573e-11 
0 0 2.96149e-11 0 0 4.22337e-11 0 0 0 
0 4.2874e-11 0 0 2.46921e-11 0 0 1.00541e-12 0 
0 0 0 0 0 0 0 2.99346e-11 0 
0 2.19616e-12 0 0 0 0 0 0 0 
0 0 0 0 0 0 9.42997e-12 0 0 
0 0 0 0 0 0 0 0 0 
0 0 0 0 0 0 0 0 0 
0 0 1.60572e-11 0 0 0 0 0 0 
0 0 0 0 0 0 0 0 0 
0 0 0 0 0 0 0 0 0 
0 0 0 0 0 0 0 0 0 
0 0 0 0 0 0 0 0 0 
0 0 0 0 0 0 0 0 0 
1.54508e-11 0 0 0 0 7.9226e-11 8.1317e-11 0 0 
0 2.37298e-11 0 0 0 0 0 0 0 
0 0 0 0 0 4.64817e-12 0 0 0 
0 0 0 0 0 0 3.92009e-11 0 0 
0 0 0 0 9.55822e-12 0 7.61984e-11 8.77315e-11 0 
0 0 9.92943e-11 7.61876e-11 4.72845e-12 0 0 0 0 
0 0 0 0 0 4.29376e-11 0 0 0 
1.32117e-10 0 0 0 1.39234e-10 0 0 0 0 
2.61519e-11 0 1.68583e-10 0 0 0 0 0 5.71387e-11 
3.07824e-11 0 7.50656e-11 2.06681e-11 0 0 2.46613e-08 0 0 
3.18611e-11 0 0 0 0 9.92017e-12 0 0 0 
0 0 4.59007e-11 0 0 8.42429e-11 6.8073e-11 0 0 
1.00141e-10 7.85282e-11 2.64712e-11 0 7.30292e-11 0 0 0 1.28346e-10 
0 0 0 2.87378e-11 0 1.69457e-10 0 0 0 
1.06883e-10 0 0 0 5.32014e-11 6.26728e-11 0 3.58912e-12 0 
0 0 1.32101e-11 2.4496e-11 0 0 0 0 0 
0 0 0 0 0 2.20203e-11 0 8.97771e-11 0 
0 0 5.51826e-11 0 7.79713e-11 0 0 0 0 
0 0 0 0 0 0 0 0 0 
0 8.73878e-12 0 0 0 0 0 0 0 
0 0 1.57706e-11 9.80531e-11 1.71033e-11 0 0 0 0 
0 5.99139e-11 0 3.77849e-11 3.90413e-11 0 0 0 1.32275e-11 
0 1.94547e-11 0 0 0 0 0 0 0 
0 0 0 0 0 0 0 0 0 
0 0 0 0 0 0 0 0 0 
0 7.28854e-13 0 0 0 0 0 0 0 
0 0 0 0 0 0 0 0 0 
0 0 0 0 0 0 0 0 0 
0 5.3581e-12 0 5.08944e-11 0 0 0 0 0 
0 0 0 3.84683e-11 4.61748e-11 0 0 0 0 
0 2.63443e-08 0 2.36473e-10 0 0 1.06375e-11 5.15075e-13 0 
0 1.26767e-10 1.26864e-12 0 0 0 0 0 4.23385e-11 
2.61061e-11 0 0 0 0 2.33979e-11 6.97506e-11 0 0 
0 0 6.45499e-13 0 1.04919e-11 0 0 0 0 
0 0 0 0 0 0 5.71538e-11 0 0 
0 0 9.00681e-11 0 3.22148e-11 0 0 0 0 
0 0 0 0 0 0 5.3342e-11 8.55642e-12 0 
0 1.17806e-10 0 0 0 0 3.58304e-10 0 0 
0 0 0 0 0 0 0 1.05518e-11 0 
3.09284e-12 0 0 0 0 2.20553e-10 0 0 5.87881e-11 
0 0 0 3.66892e-11 4.49455e-11 2.15221e-11 0 0 0 
1.25024e-10 0 0 0 0 2.98543e-10 2.73318e-08 2.54399e-10 0 
0 0 1.16106e-10 0 0 8.83872e-11 0 0 2.42499e-12 
9.92975e-12 0 0 0 0 9.60815e-12 0 0 0 
0 5.78816e-11 1.19145e-10 0 0 0 0 4.4158e-11 5.8503e-11 
0 0 0 0 0 0 0 3.47624e-12 0 
0 0 0 0 5.34405e-12 0 0 0 0 
0 0 0 0 3.26959e-11 0 0 0 0 
0 0 6.83363e-11 0 7.18127e-13 2.41185e-10 0 0 0 
0 0 0 5.62025e-11 0 0 0 0 0 
0 0 7.68637e-12 0 0 4.12796e-12 0 0 0 
0 0 0 0 0 0 0 0 0 
0 0 0 0 0 0 0 0 0 
0 0 0 0 0 0 0 0 0 
0 0 0 0 2.18264e-12 0 0 0 0 
0 0 9.74308e-12 0 0 0 0 4.4733e-11 0 
0 7.03412e-11 0 0 2.47315e-08 0 2.78725e-11 0 0 
3.23887e-11 0 3.74448e-11 0 0 0 0 0 0 
3.48902e-10 0 0 0 0 1.80046e-11 1.36433e-10 0 0 
1.54593e-10 0 0 0 8.26463e-11 1.44666e-11 0 0 0 
0 0 3.54339e-11 1.68734e-11 0 0 3.15263e-11 0 0 
0 0 0 2.17326e-11 0 2.34833e-11 0 2.4316e-11 0 
0 0 0 0 0 2.39166e-10 2.05364e-10 0 0 
0 2.6878e-11 6.09988e-11 9.71633e-11 0 0 1.60033e-10 0 0 
4.1452e-11 0 0 0 0 0 1.075e-10 9.59907e-11 0 
1.44373e-10 0 1.55334e-10 0 0 9.93148e-11 0 6.10472e-11 0 
0 0 1.68067e-11 0 0 0 0 0 0 
4.1293e-11 0 0 2.44703e-08 1.55608e-10 0 1.09078e-10 0 0 
0 0 0 0 0 1.03374e-10 0 0 1.42333e-10 
0 7.12972e-12 0 0 0 1.80474e-10 0 0 1.95233e-10 
0 0 0 0 0 0 1.63866e-10 0 3.20849e-11 
0 0 0 0 0 0 0 0 1.09121e-10 
0 0 0 7.38601e-11 1.60337e-10 0 0 0 0 
0 0 0 0 0 0 0 8.31975e-12 0 
0 0 1.15886e-12 0 0 0 0 0 7.3722e-12 
0 0 0 0 0 0 1.20302e-10 0 8.41025e-11 
0 0 0 2.49539e-08 0 0 0 0 7.13342e-11 
0 0 3.82681e-11 0 2.02177e-11 0 1.54227e-11 0 0 
0 1.03611e-11 0 0 0 0 0 0 0 
0 0 0 0 0 0 0 0 0 
0 0 0 0 0 0 0 0 0 
0 0 0 0 0 0 0 0 0 
0 0 0 0 0 0 0 0 0 
0 0 0 0 0 0 0 0 0 
0 1.76984e-10 8.80214e-11 1.2396e-10 3.4588e-11 0 0 0 0 
0 0 0 0 0 0 0 0 0 
2.14132e-10 0 0 8.44916e-12 0 1.13734e-10 1.4277e-10 5.38607e-11 0 
0 0 0 0 0 0 0 0 0 
2.7452e-11 0 0 0 0 3.42052e-11 0 7.08194e-11 0 
0 0 0 0 2.30104e-11 0 0 1.74089e-11 0 
6.337e-11 0 0 0 1.57393e-10 3.96492e-13 3.98318e-11 0 0 
2.9432e-10 0 0 2.99319e-10 0 0 0 0 0 
0 0 0 4.28079e-11 0 5.97552e-11 0 0 2.23085e-10 
0 0 0 0 4.64639e-11 1.82103e-12 0 0 0 
0 0 0 0 0 0 0 0 1.5877e-11 
0 0 0 0 1.00715e-10 0 0 4.38497e-11 0 
6.93218e-11 0 0 3.40959e-11 0 0 0 0 1.05512e-10 
0 0 0 0 1.51585e-10 2.73842e-10 2.71314e-08 0 0 
0 1.27264e-11 0 0 0 6.07485e-11 0 0 0 
0 2.54064e-12 0 5.28584e-12 7.56707e-11 0 1.63661e-10 8.41107e-11 0 
0 0 0 0 0 4.56544e-11 0 0 0 
0 0 0 0 0 0 0 0 0 
0 0 3.8731e-13 0 0 0 1.14029e-11 0 0 
0 0 0 3.39942e-11 5.73991e-11 0 0 2.4268e-11 3.46445e-11 
0 0 0 0 0 4.77494e-12 0 6.70974e-11 3.88217e-11 
0 0 0 0 0 5.18516e-12 0 0 0 
0 1.02757e-11 0 0 0 0 0 0 0 
0 0 0 0 0 0 0 0 0 
0 0 0 0 0 6.85597e-13 0 0 0 
0 0 0 0 0 0 0 0 0 
0 0 0 0 0 0 0 0 0 
0 0 0 6.6824e-12 0 0 6.91827e-11 1.59713e-11 0 
1.11752e-10 2.16864e-11 3.29011e-11 0 0 0 4.15881e-12 0 1.93243e-10 
0 0 2.0379e-11 0 0 2.7126e-10 0 0 2.13647e-10 
0 0 0 0 2.68237e-08 0 0 4.50123e-11 0 
3.81662e-11 0 0 0 6.77204e-11 0 0 0 0 
0 0 0 0 0 0 0 0 0 
0 0 1.78611e-12 0 0 5.93948e-11 7.24613e-11 1.75494e-11 0 
0 0 0 0 0 0 0 0 0 
0 0 0 0 0 0 0 0 1.20555e-10 
0 1.66049e-11 1.78156e-10 1.03483e-10 3.5455e-12 0 1.70943e-11 0 0 
0 0 3.81976e-13 0 0 1.49538e-11 0 0 6.87688e-13 
0 0 0 9.42238e-11 0 0 0 0 3.22778e-11 
3.16612e-11 0 1.47265e-10 0 0 8.42514e-12 0 0 0 
0 8.91462e-11 0 0 0 0 0 1.27503e-10 0 
0 0 0 2.3201e-10 0 0 0 0 0 
0 0 0 0 0 4.67184e-11 0 0 0 
0 0 0 2.86115e-11 0 0 0 0 0 
0 0 0 5.12409e-11 5.38025e-11 9.90483e-11 8.03622e-11 0 0 
0 0 0 0 0 0 0 0 0 
0 0 0 3.89346e-11 0 0 0 0 0 
0 0 0 3.95499e-11 0 1.33261e-10 4.83187e-11 0 0 
0 1.89739e-10 0 0 0 0 0 0 0 
0 0 0 0 3.43875e-11 0 0 0 0 
0 0 0 0 0 0 0 0 0 
0 0 0 0 0 0 0 0 0 
0 0 0 0 0 0 0 0 0 
0 0 0 0 0 0 0 0 0 
0 0 0 0 0 0 0 0 0 
0 0 5.24737e-11 0 0 5.51915e-11 0 2.80757e-11 1.02996e-11 
0 0 0 0 1.5281e-12 0 0 0 0 
0 1.38811e-10 0 0 0 0 0 0 0 
0 6.87915e-11 2.50841e-10 0 0 9.53182e-11 0 0 0 
3.66036e-11 0 0 2.28398e-11 0 0 5.04882e-12 0 1.91284e-11 
0 0 0 0 0 0 2.58544e-11 0 6.74636e-11 
0 0 0 6.69554e-11 6.00432e-11 0 0 0 0 
1.71877e-10 0 0 3.03516e-08 0 0 0 3.48516e-08 0 
0 0 0 1.64765e-10 0 1.04668e-10 0 6.56873e-11 1.7604e-10 
1.77895e-11 2.28666e-11 7.75278e-11 0 0 0 0 6.43761e-11 0 
5.61579e-11 0 0 0 0 1.45673e-12 1.80591e-11 0 0 
0 0 0 0 0 0 0 0 0 
2.13949e-11 0 0 0 8.08479e-11 0 0 0 6.67841e-11 
0 0 0 1.77576e-11 0 0 0 6.29078e-11 0 
8.34823e-11 0 0 0 0 0 0 8.21179e-11 3.73966e-11 
0 0 0 0 0 0 1.54494e-10 0 0 
0 0 0 0 0 0 0 0 4.25682e-13 
0 0 0 0 0 7.07228e-11 6.40988e-11 0 0 
0 0 0 0 1.48768e-11 0 0 0 0 
0 4.05569e-11 0 6.09318e-11 0 0 0 0 0 
0 0 9.55176e-11 0 0 0 0 0 0 
0 0 5.4329e-11 5.678e-11 2.30582e-11 1.03175e-10 0 5.12736e-11 1.37083e-10 
0 0 0 0 0 0 0 0 0 
0 0 0 0 0 0 0 0 0 
0 0 0 0 0 0 0 0 0 
0 0 0 0 0 0 0 0 0 
0 0 0 0 0 0 0 0 0 
0 0 0 0 0 0 0 0 0 
0 4.51647e-11 0 9.41254e-11 0 5.75093e-11 0 0 0 
0 0 0 1.15525e-10 3.82598e-11 4.49362e-11 0 9.9194e-11 0 
0 0 0 0 0 0 0 0 0 
0 0 0 0 0 1.52371e-11 0 0 0 
0 0 0 0 0 0 1.05986e-10 0 0 
0 0 8.11076e-11 0 0 0 9.49946e-12 0 0 
0 0 0 0 0 8.02811e-11 0 1.78981e-10 0 
0 0 2.47854e-10 0 0 0 0 0 0 
0 0 0 0 2.63272e-08 0 0 0 0 
0 0 0 0 0 0 0 0 0 
0 0 0 0 0 0 0 0 1.62411e-11 
0 0 0 0 1.71975e-11 0 0 0 5.98929e-11 
0 5.66004e-12 0 0 1.34821e-10 0 0 0 0 
5.42087e-11 0 0 0 0 0 1.05111e-10 0 8.19134e-11 
6.18047e-11 9.1899e-11 0 0 0 0 1.16508e-10 0 0 
1.03743e-10 2.49724e-08 0 0 0 1.20424e-10 4.29187e-11 0 0 
0 1.92348e-10 0 7.93707e-13 0 0 2.8389e-08 0 0 
7.08008e-11 0 0 0 0 0 0 0 0 
0 0 0 0 0 0 0 0 0 
0 4.81126e-11 0 0 0 9.85272e-11 6.1004e-11 0 0 
1.58299e-11 0 0 0 0 0 0 1.92217e-12 0 
0 0 0 0 0 0 0 0 7.66975e-11 
4.02174e-11 0 0 0 0 0 0 0 0 
0 0 0 0 0 0 0 0 0 
0 0 0 0 0 0 0 0 0 
0 0 0 0 0 0 0 0 0 
0 0 0 0 0 0 0 0 0 
0 0 0 0 0 0 2.07672e-11 0 0 
0 6.26517e-11 0 0 0 0 0 9.04012e-11 0 
3.93225e-10 0 0 0 3.12148e-11 7.57822e-11 0 0 0 
0 3.85878e-08 3.87933e-08 0 0 0 3.76949e-11 0 0 
0 0 6.86734e-11 9.96106e-12 0 0 0 0 0 
0 0 8.6238e-11 0 0 4.81781e-11 0 0 0 
0 0 2.34282e-11 0 0 0 0 0 0 
0 2.1347e-11 0 0 1.29655e-12 0 0 0 0 
0 0 0 0 3.34014e-08 0 0 2.20595e-10 0 
2.63651e-10 0 2.73419e-10 0 0 1.68662e-11 0 0 1.24348e-11 
0 0 0 0 0 5.47671e-11 0 0 0 
0 0 0 0 0 0 0 0 0 
0 7.84946e-11 0 0 0 0 0 0 0 
0 1.28238e-11 0 0 0 0 0 0 0 
0 0 0 1.11101e-10 0 0 0 1.54538e-10 0 
0 8.92166e-12 7.73221e-13 0 0 0 0 0 0 
0 6.22201e-11 5.36848e-12 0 9.83557e-11 5.09952e-11 2.19002e-12 2.17922e-10 0 
0 0 0 0 9.92589e-11 0 0 0 2.29324e-11 
0 0 0 0 0 0 0 0 0 
0 0 0 0 1.70646e-11 2.33012e-11 0 0 2.35359e-11 
0 0 0 0 2.59344e-10 0 0 1.35362e-10 0 
4.1949e-11 1.22104e-10 0 0 0 1.09917e-10 2.25578e-10 0 0 
0 0 0 0 0 0 0 0 1.59054e-11 
0 0 0 0 7.21748e-12 4.48116e-12 0 1.1385e-12 0 
0 0 0 0 0 0 0 0 0 
0 0 0 0 0 0 0 0 0 
0 0 0 0 0 0 0 0 0 
0 0 0 0 0 0 0 0 0 
0 0 0 0 2.03848e-11 0 0 0 0 
0 0 6.28127e-11 0 0 0 0 0 0 
0 4.43755e-12 0 0 5.19037e-11 0 8.37684e-11 0 0 
0 0 2.30698e-10 0 0 9.22632e-11 1.08093e-10 0 0 
0 0 3.20175e-11 0 0 0 0 0 0 
2.48838e-12 0 0 9.38983e-11 0 1.07845e-10 0 0 0 
0 0 0 0 0 0 0 0 0 
0 0 0 0 0 0 1.00721e-11 0 1.5633e-11 
0 4.8189e-10 0 0 0 6.17887e-11 0 2.45918e-11 0 
5.48917e-11 0 0 0 0 0 7.46702e-11 0 0 
2.82274e-14 9.44316e-11 0 0 4.76598e-11 0 0 4.86801e-11 0 
0 0 0 0 0 3.23099e-11 0 0 0 
0 0 0 0 2.66086e-12 0 0 0 0 
0 0 0 0 0 0 0 0 0 
0 3.80274e-11 4.5306e-11 0 0 0 0 0 0 
3.56559e-11 0 0 9.42338e-11 0 0 0 0 0 
0 0 0 0 0 2.66487e-11 0 5.6276e-11 0 
5.01322e-11 0 0 2.10017e-10 0 1.86934e-12 0 3.92742e-11 0 
4.45629e-12 0 0 0 0 0 0 0 0 
0 0 0 0 0 0 0 0 0 
1.96797e-10 1.68545e-10 2.68642e-08 0 0 1.93075e-10 0 0 0 
0 0 5.28627e-11 1.06258e-12 0 3.12773e-11 0 0 0 
0 0 0 1.97261e-11 0 0 0 0 0 
0 0 0 0 0 0 0 0 0 
0 0 0 0 0 0 0 0 0 
0 5.31985e-13 0 0 0 0 0 0 0 
0 0 0 0 0 0 0 0 0 
0 0 0 0 0 0 0 0 0 
0 0 0 0 0 0 0 5.11453e-11 0 
0 3.13189e-11 0 0 0 2.68512e-08 0 3.82057e-10 1.06915e-10 
0 0 0 0 2.74016e-10 2.94514e-10 0 0 0 
5.60813e-11 1.98832e-10 0 0 1.13529e-10 0 0 0 0 
0 0 0 0 0 0 0 0 0 
0 0 0 3.77314e-11 1.06295e-10 1.04884e-10 0 2.99936e-10 1.70797e-12 
0 2.55088e-11 0 0 0 0 6.44389e-11 0 0 
0 0 0 1.10706e-10 2.53389e-11 0 4.12036e-11 0 0 
0 0 4.23494e-11 0 9.94363e-11 6.17936e-12 1.38006e-11 0 8.71244e-13 
8.60299e-11 0 1.48411e-11 1.68946e-11 0 0 0 5.87703e-11 0 
0 0 0 0 0 0 0 0 0 
0 0 0 0 3.91187e-11 0 3.98205e-11 0 0 
0 0 0 0 0 0 0 0 0 
0 0 0 0 2.08151e-12 0 4.81206e-11 0 0 
0 0 1.25499e-10 0 0 0 0 1.08473e-11 0 
0 0 0 0 0 5.6283e-11 0 0 1.86744e-11 
1.30028e-10 0 0 0 0 0 0 0 1.83622e-10 
2.76652e-10 0 0 0 9.9925e-11 0 0 2.23417e-11 0 
2.1025e-11 0 0 0 0 0 0 0 0 
0 0 1.87215e-12 0 0 0 0 0 0 
1.11006e-10 8.51827e-11 7.62075e-11 0 0 0 0 0 0 
0 0 2.01704e-10 2.75241e-11 4.44495e-11 1.09852e-10 0 3.1173e-08 0 
0 0 0 0 0 0 0 0 0 
0 0 0 0 0 0 0 0 0 
0 0 0 0 0 0 0 0 0 
0 0 0 0 0 0 0 0 0 
0 0 0 0 0 0 0 0 0 
0 0 0 0 0 0 0 0 0 
0 0 0 0 0 0 0 2.49605e-10 3.91605e-11 
0 0 0 1.11807e-13 2.82716e-10 1.58082e-10 0 8.32167e-12 0 
0 3.37846e-11 0 1.86412e-10 0 0 0 0 0 
3.33292e-11 0 0 0 0 0 0 0 0 
0 0 0 0 0 0 0 1.28618e-10 0 
0 1.23276e-10 0 0 0 0 6.19761e-11 0 2.78673e-11 