# vtk DataFile Version 5.1
vtk output
ASCII
DATASET STRUCTURED_POINTS
DIMENSIONS 250 250 1
SPACING 1 1 1
ORIGIN 0 0 0
POINT_DATA 62500
FIELD FieldData 6
feature_1 1 62500 float
0 0 0 0 0 0 0 0 0 
0 0 0 0 0 0 0 0 0 
0 0 0 0 0 0 0 0 0 
0 0 0 0 0 0 0 0 0 
0 0 0 0 0 0 0 0 0 
0 0 0 0 0 0 0 0 0 
0 0 0 0 0 0 0 0 0 
0 0 0 0 0 0 0 0 0 
0 0 0 0 0 0 0 0 0 
0 0 0 0 0 0 0 0 0 
0 0 0 0 0 0 0 0 0 
0 0 0 0 0 0 0 0 0 
0 0 0 0 0 0 0 0 0 
0 0 0 0 0 0 0 0 0 
0 0 0 0 0 0 0 0 0 
0 0 0 0 0 0 0 0 0 
0 0 0 0 0 0 0 0 0 
0 0 0 0 0 0 0 0 0 
0 0 0 0 0 0 0 0 0 
0 0 0 0 0 0 0 0 0 
0 0 0 0 0 0 0 0 0 
0 0 0 0 0 0 0 0 0 
0 0 0 0 0 0 0 0 0 
0 0 0 0 0 0 0 0 0 
0 0 0 0 0 0 0 0 0 
0 0 0 0 0 0 0 0 0 
0 0 0 0 0 0 0 0 0 
0 0 0 0 0 0 0 0 0 
0 0 0 0 0 0 0 0 0 
0 0 0 0 0 0 0 0 0 
0 0 0 0 0 0 0 0 0 
0 0 0 0 0 0 0 0 0 
0 0 0 0 0 0 0 0 0 
0 0 0 0 0 0 0 0 0 
0 0 0 0 0 0 0 0 0 
0 0 0 0 0 0 0 0 0 
0 0 0 0 0 0 0 0 0 
0 0 0 0 0 0 0 0 0 
0 0 0 0 0 0 0 0 0 
0 0 0 0 0 0 0 0 0 
0 0 0 0 0 0 0 0 0 
0 0 0 0 0 0 0 0 0 
0 0 0 0 0 0 0 0 0 
0 0 0 0 0 0 0 0 0 
0 0 0 0 0 0 0 0 0 
0 0 0 0 0 0 0 0 0 
0 0 0 0 0 0 0 0 0 
0 0 0 0 0 0 0 0 0 
0 0 0 0 0 0 0 0 0 
0 0 0 0 0 0 0 0 0 
0 0 0 0 0 0 0 0 0 
0 0 0 0 0 0 0 0 0 
0 0 0 0 0 0 0 0 0 
0 0 0 0 0 0 0 0 0 
0 0 0 0 0 0 0 0 0 
0 0 0 0 0 0 0 0 0 
0 0 0 0 0 0 0 0 0 
0 0 0 0 0 0 0 0 0 
0 0 0 0 0 0 0 0 0 
0 0 0 0 0 0 0 0 0 
0 0 0 0 0 0 0 0 0 
0 0 0 0 0 0 0 0 0 
0 0 0 0 0 0 0 0 0 
0 0 0 0 0 0 0 0 0 
0 0 0 0 0 0 0 0 0 
0 0 0 0 0 0 0 0 0 
0 0 0 0 0 0 0 0 0 
0 0 0 0 0 0 0 0 0 
0 0 0 0 0 0 0 0 0 
0 0 0 0 0 0 0 0 0 
0 0 0 0 0 0 0 0 0 
0 0 0 0 0 0 0 0 0 
0 0 0 0 0 0 0 0 0 
0 0 0 0 0 0 0 0 0 
0 0 0 0 0 0 0 0 0 
0 0 0 0 0 0 0 0 0 
0 0 0 0 0 0 0 0 0 
0 0 0 0 0 0 0 0 0 
0 0 0 0 0 0 0 0 0 
0 0 0 0 0 0 0 0 0 
0 0 0 0 0 0 0 0 0 
0 0 0 0 0 0 0 0 0 
0 0 0 0 0 0 0 0 0 
0 0 0 0 0 0 0 0 0 
0 0 0 0 0 0 0 0 0 
0 0 0 0 0 0 0 0 0 
0 0 0 0 0 0 0 0 0 
0 0 0 0 0 0 0 0 0 
0 0 0 0 0 0 0 0 0 
0 0 0 0 0 0 0 0 0 
0 0 0 0 0 0 0 0 0 
0 0 0 0 0 0 0 0 0 
0 0 0 0 0 0 0 0 0 
0 0 0 0 0 0 0 0 0 
0 0 0 0 0 0 0 0 0 
0 0 0 0 0 0 0 0 0 
0 0 0 0 0 0 0 0 0 
0 0 0 0 0 0 0 0 0 
0 0 0 0 0 0 0 0 0 
0 0 0 0 0 0 0 0 0 
4.24721e-13 0 0 0 0 0 0 0 0 
0 0 0 0 0 0 0 0 0 
0 0 0 0 0 0 0 0 0 
0 0 0 0 0 0 0 0 0 
0 0 0 0 0 0 0 0 0 
0 0 0 0 0 0 0 0 0 
0 0 0 0 0 0 0 0 0 
0 0 0 0 0 0 0 0 0 
0 0 0 0 0 0 0 0 0 
0 0 0 0 0 0 0 0 0 
0 0 0 0 0 0 0 0 0 
0 0 0 0 0 0 0 0 0 
0 0 0 0 0 0 0 0 0 
0 0 0 0 0 0 0 0 0 
0 0 0 0 0 0 0 0 0 
0 0 0 0 0 0 0 0 0 
0 0 0 0 0 0 0 0 0 
0 0 0 0 0 0 0 0 0 
0 0 0 0 0 0 0 0 0 
0 0 0 0 0 0 0 0 0 
0 0 0 0 0 0 0 0 0 
0 0 0 0 0 0 0 0 0 
0 0 0 0 0 0 0 0 0 
0 0 0 0 0 0 0 0 0 
0 0 0 0 0 0 0 0 0 
0 0 0 0 0 0 0 0 0 
0 0 0 0 0 0 0 0 0 
0 0 0 0 0 0 0 0 0 
0 0 0 0 0 0 0 0 0 
0 0 0 0 0 0 0 0 0 
0 0 0 0 0 0 0 0 0 
0 0 0 0 0 0 0 0 0 
0 0 0 0 0 0 0 0 0 
0 0 0 0 0 0 0 0 0 
0 0 0 0 0 0 0 0 0 
0 0 0 0 0 0 0 0 0 
0 0 0 0 0 0 0 0 0 
0 0 0 0 0 0 0 0 0 
0 0 0 0 0 0 0 0 0 
0 0 0 0 0 0 0 0 0 
0 0 0 0 0 0 0 0 0 
0 0 0 0 0 0 0 0 0 
0 0 0 0 0 0 0 0 0 
0 0 0 0 0 0 0 0 0 
0 0 0 0 0 0 0 0 0 
0 0 0 0 0 0 0 0 0 
0 0 0 0 0 0 0 0 0 
0 0 0 0 0 0 0 0 0 
0 0 0 0 0 0 0 0 0 
0 0 0 0 0 0 0 0 0 
0 0 0 0 0 0 0 0 0 
0 0 0 0 0 0 0 0 0 
0 0 0 0 0 0 0 0 0 
0 0 0 0 0 0 0 0 0 
0 0 0 0 0 0 0 0 0 
0 0 0 0 0 0 0 0 0 
0 0 0 0 0 0 0 0 0 
0 0 0 0 0 0 0 0 0 
0 0 0 0 0 0 0 0 0 
0 0 0 0 0 0 0 0 0 
0 0 0 0 0 0 0 0 0 
0 0 0 0 0 0 0 0 0 
0 0 0 0 0 0 0 0 0 
0 0 0 0 0 0 0 0 0 
0 0 0 0 0 0 0 0 0 
0 0 0 0 0 0 0 0 0 
0 0 0 0 0 0 0 0 0 
0 0 0 0 0 0 0 0 0 
0 0 0 0 0 0 0 0 0 
0 0 0 0 0 0 0 0 0 
0 0 0 0 0 0 0 0 0 
0 0 0 0 0 0 0 0 0 
0 0 0 0 0 0 0 0 0 
0 0 0 0 0 0 0 0 0 
0 0 0 0 0 0 0 0 0 
0 0 0 0 0 0 0 0 0 
0 0 0 0 0 0 0 0 0 
0 0 0 0 0 0 0 0 0 
0 0 0 0 0 0 0 0 0 
0 0 0 0 0 0 0 0 0 
0 0 0 0 0 0 0 0 0 
0 0 0 0 0 0 0 0 0 
0 0 0 0 0 0 0 0 0 
0 0 0 0 0 0 0 0 0 
0 0 0 0 0 0 0 0 0 
0 0 0 0 0 0 0 0 0 
0 0 0 0 0 0 0 0 0 
0 0 0 0 0 0 0 0 0 
0 0 0 0 0 0 0 0 0 
0 0 0 0 0 0 0 0 0 
0 0 0 0 0 0 0 0 0 
0 0 0 0 0 0 0 0 0 
0 0 0 0 0 0 0 0 0 
0 0 0 0 0 0 0 0 0 
0 0 0 0 0 0 0 0 0 
0 0 0 0 0 0 0 0 0 
0 0 0 0 0 0 0 0 0 
0 0 0 0 0 0 0 0 0 
0 0 0 0 0 0 0 0 0 
0 0 0 0 0 0 0 0 0 
0 0 0 0 0 0 0 0 0 
0 0 0 0 0 0 0 0 0 
0 0 0 0 0 0 0 0 0 
0 0 0 0 0 0 0 0 0 
0 0 0 0 0 0 0 0 0 
0 0 0 0 0 0 0 0 0 
0 0 0 0 0 0 0 0 0 
0 0 0 0 0 0 0 0 0 
0 0 0 0 0 0 0 0 0 
0 0 0 0 0 0 0 0 0 
0 0 0 0 0 0 0 0 0 
0 0 0 0 0 0 0 0 0 
0 0 0 0 0 0 0 0 0 
0 0 0 0 0 0 0 0 0 
0 0 0 0 0 0 0 4.19647e-13 0 
0 0 0 0 0 0 0 0 0 
0 0 0 0 0 0 0 0 0 
0 0 0 0 0 0 0 0 0 
0 0 0 0 0 0 0 0 0 
0 0 0 0 0 0 0 0 0 
0 0 0 0 0 0 0 0 0 
0 0 0 0 0 0 0 0 0 
0 0 0 0 0 0 0 0 0 
0 0 0 0 0 0 0 0 0 
0 0 0 0 0 0 0 0 0 
0 0 0 0 0 0 0 0 0 
0 0 0 0 0 0 0 0 0 
0 0 0 0 0 0 0 0 0 
0 0 0 0 0 0 0 0 0 
0 0 0 0 0 0 0 0 0 
0 0 0 0 0 0 0 0 0 
0 0 0 0 0 0 0 0 0 
0 0 0 0 0 0 0 0 0 
0 0 0 0 0 0 0 0 0 
0 0 0 0 0 0 0 0 0 
0 0 0 0 0 0 0 0 0 
0 0 0 0 0 0 0 0 0 
0 0 0 0 0 0 0 0 0 
0 0 0 0 0 0 0 0 0 
0 0 0 0 0 0 0 0 0 
0 0 0 0 0 0 0 0 0 
0 0 0 0 0 0 0 0 0 
0 0 0 0 0 0 0 0 0 
0 0 0 0 0 0 0 0 0 
0 0 0 0 0 0 0 0 0 
0 0 0 0 0 0 0 0 0 
0 0 0 0 0 0 0 0 0 
0 0 0 0 0 0 0 0 0 
0 0 0 0 0 0 0 0 0 
0 0 0 0 0 0 0 0 0 
0 0 0 0 0 0 0 0 0 
0 0 0 0 0 0 0 0 0 
0 0 0 0 0 0 0 0 0 
0 0 0 0 0 0 0 0 0 
0 0 0 0 0 0 0 0 0 
0 0 0 0 0 0 0 0 0 
0 0 0 0 0 0 0 0 0 
0 0 0 0 0 0 0 0 0 
0 0 0 0 0 0 0 0 0 
0 0 0 0 0 0 0 0 0 
0 0 0 0 0 0 0 0 0 
0 0 0 0 0 0 0 0 0 
0 0 0 0 0 0 0 0 0 
0 0 0 0 0 0 0 0 0 
0 0 0 0 0 0 0 0 0 
0 0 0 0 0 0 0 0 0 
0 0 0 0 0 0 0 0 0 
0 0 0 0 0 0 0 0 0 
0 0 0 0 0 0 0 0 0 
0 0 0 0 0 0 0 0 0 
0 0 0 0 0 0 0 0 0 
0 0 0 0 0 0 0 0 0 
0 0 0 0 0 0 0 0 0 
0 0 0 0 0 0 0 0 0 
0 0 0 0 0 0 0 0 0 
0 0 0 0 0 0 0 0 0 
0 0 0 0 0 0 0 0 0 
0 0 0 0 0 0 0 0 0 
0 0 0 0 0 0 0 0 0 
0 0 0 0 0 0 0 0 0 
0 0 0 0 0 0 0 0 0 
0 0 0 0 0 0 0 0 0 
0 0 0 0 0 0 0 0 0 
0 0 0 0 0 0 0 0 0 
0 0 0 0 0 0 0 0 0 
0 0 0 0 0 0 0 0 0 
0 0 0 0 0 0 0 0 0 
0 0 0 0 0 0 0 0 0 
0 0 0 0 0 0 0 0 0 
0 0 0 0 0 0 0 0 0 
0 0 0 0 0 0 0 0 0 
0 0 0 0 0 0 0 0 0 
0 0 0 0 0 0 0 0 0 
0 0 0 0 0 0 0 0 0 
0 0 0 0 0 0 0 0 0 
0 0 0 0 0 0 0 0 0 
0 0 0 0 0 0 0 0 0 
0 0 0 0 0 0 0 0 0 
0 0 0 0 0 0 0 0 0 
0 0 0 0 0 0 0 0 0 
0 0 0 0 0 0 0 0 0 
0 0 0 0 0 0 0 0 0 
0 0 0 0 0 0 0 0 0 
0 0 0 0 0 0 0 0 0 
0 0 0 0 0 0 0 0 0 
0 0 0 0 0 0 0 0 0 
0 0 0 0 0 0 0 0 0 
0 0 0 0 0 0 0 0 0 
0 0 0 0 0 0 0 0 0 
0 0 0 0 0 0 0 0 0 
0 0 0 0 0 0 0 0 0 
0 0 0 0 0 0 0 0 0 
0 0 0 0 0 0 0 0 0 
0 0 0 0 0 0 0 0 0 
0 0 0 0 0 0 0 0 0 
0 0 0 0 0 0 0 0 0 
0 0 0 0 0 0 0 0 0 
0 0 0 0 0 0 0 0 0 
0 0 0 0 0 0 0 0 0 
0 0 0 0 0 0 0 0 0 
0 0 0 0 0 0 0 0 0 
0 0 0 0 0 0 0 0 0 
0 0 0 0 0 0 0 0 0 
0 0 0 0 0 0 0 0 0 
0 0 0 0 0 0 0 0 0 
0 0 0 0 0 0 0 0 0 
0 0 0 0 0 0 0 0 0 
0 0 0 0 0 0 0 0 0 
0 0 0 0 0 0 0 0 0 
0 0 0 0 0 0 0 0 0 
0 0 0 0 0 0 0 0 0 
0 0 0 0 0 0 0 0 0 
0 0 0 0 0 0 0 0 0 
0 0 0 0 0 0 0 0 0 
0 0 0 0 0 0 0 0 0 
0 0 0 0 0 0 0 0 0 
0 0 0 0 0 0 0 0 0 
0 0 0 0 0 0 0 0 0 
0 0 0 0 0 0 0 0 0 
0 0 0 0 0 0 0 0 0 
0 0 0 0 0 0 0 0 0 
0 0 0 0 0 0 0 0 0 
0 0 0 0 0 0 0 0 0 
0 0 0 0 0 0 0 0 0 
0 0 0 0 0 0 0 0 0 
0 0 0 0 0 0 0 0 0 
0 0 0 0 0 0 0 0 0 
0 0 0 0 0 0 0 0 0 
0 0 0 0 0 0 0 0 0 
0 0 0 0 0 0 0 0 0 
0 0 0 0 0 0 0 0 0 
0 0 0 0 0 0 0 0 0 
0 0 0 0 0 0 0 0 0 
0 0 0 0 0 0 0 0 0 
0 0 0 0 0 0 0 0 0 
0 0 0 0 0 0 0 0 0 
0 0 0 0 0 0 0 0 0 
0 0 0 0 0 0 0 0 0 
0 0 0 0 0 0 0 0 0 
0 0 0 0 0 0 0 0 0 
0 0 0 0 0 0 0 0 0 
0 0 0 0 0 0 0 0 0 
0 0 0 0 0 0 0 0 0 
0 0 0 0 0 0 0 0 0 
0 0 0 0 0 0 0 0 0 
0 0 0 0 0 0 0 0 0 
0 0 0 0 0 0 0 0 0 
0 0 0 0 0 0 0 0 0 
0 0 0 0 0 0 0 0 0 
0 0 0 0 0 0 0 0 0 
0 0 0 0 0 0 0 0 0 
0 0 0 0 0 0 0 0 0 
0 0 0 0 0 0 0 0 0 
0 0 0 0 0 0 0 0 0 
0 0 0 0 0 0 0 0 0 
0 0 0 0 0 0 0 0 0 
0 0 0 0 0 0 0 0 0 
0 0 0 0 0 0 0 0 0 
0 0 0 0 0 0 0 0 0 
0 0 0 0 0 0 0 0 0 
0 0 0 0 0 0 0 0 0 
0 0 0 0 0 0 0 0 0 
0 0 0 0 0 0 0 0 0 
0 0 0 0 0 0 0 0 0 
0 0 0 0 0 0 0 0 0 
0 0 0 0 0 0 0 0 0 
0 0 0 0 0 0 0 0 0 
0 0 0 0 0 0 0 0 0 
0 0 0 0 0 0 0 0 0 
0 0 0 0 0 0 0 0 0 
0 0 0 0 0 0 0 0 0 
0 0 0 0 0 0 0 0 0 
0 0 0 0 0 0 0 0 0 
0 0 0 0 0 0 0 0 0 
0 0 0 0 0 0 0 0 0 
0 0 0 0 0 0 0 0 0 
0 0 0 0 0 0 0 0 0 
0 0 0 0 0 0 0 0 0 
0 0 0 0 0 0 0 0 0 
0 0 0 0 0 0 0 0 0 
0 0 0 0 0 0 0 0 0 
0 0 0 0 0 0 0 0 0 
0 0 0 0 0 0 0 0 0 
0 0 0 0 0 0 0 0 0 
0 0 0 0 0 0 0 0 0 
0 0 0 0 0 0 0 0 0 
0 0 0 0 0 0 0 0 0 
0 0 0 0 0 0 0 0 0 
0 0 0 0 0 0 0 0 0 
0 0 0 0 0 0 0 0 0 
0 0 0 0 0 0 0 0 0 
0 0 0 0 0 0 0 0 0 
0 0 0 0 0 0 0 0 0 
0 0 0 0 0 0 0 0 0 
0 0 0 0 0 0 0 0 0 
0 0 0 0 0 0 0 0 0 
0 0 0 0 0 0 0 0 0 
0 0 0 0 0 0 0 0 0 
0 0 0 0 0 0 0 0 0 
0 0 0 0 0 0 0 0 0 
0 0 0 0 0 0 0 0 0 
0 0 0 0 0 0 0 0 0 
0 0 0 0 0 0 0 0 0 
0 0 0 0 0 0 0 0 0 
0 0 0 0 0 0 0 0 0 
0 0 0 0 0 0 0 0 0 
0 0 0 0 0 0 0 0 0 
0 0 0 0 0 0 0 0 0 
0 0 0 0 0 0 0 0 0 
0 0 0 0 0 0 0 0 0 
0 0 0 0 0 0 0 0 0 
0 0 0 0 0 0 0 0 0 
0 0 0 0 0 0 0 0 0 
0 0 0 0 0 0 0 0 0 
0 0 0 0 0 0 0 0 0 
0 0 0 0 0 0 0 0 0 
0 0 0 0 0 0 0 0 0 
0 0 0 0 0 0 0 0 0 
0 0 0 0 0 0 0 0 0 
0 0 0 0 0 0 0 0 0 
0 0 0 0 0 0 0 0 0 
0 0 0 0 0 0 0 0 0 
0 0 0 0 0 0 0 0 0 
0 0 0 0 0 0 0 0 0 
0 0 0 0 0 0 0 0 0 
0 0 0 0 0 0 0 0 0 
0 0 0 0 0 0 0 0 0 
0 0 0 0 0 0 0 0 0 
0 0 0 0 0 0 0 0 0 
0 0 0 0 0 0 0 0 0 
0 0 0 0 0 0 0 0 0 
0 0 0 0 0 0 0 0 0 
0 0 0 0 0 0 0 0 0 
0 0 0 0 0 0 0 0 0 
0 0 0 0 0 0 0 0 0 
0 0 0 0 0 0 0 0 0 
0 0 0 0 0 0 0 0 0 
0 0 0 0 0 0 0 0 0 
0 0 0 0 0 0 0 0 0 
0 0 0 0 0 0 0 0 0 
0 0 0 0 3.88687e-12 0 0 0 0 
0 0 0 0 0 0 0 0 0 
0 0 0 0 0 0 0 0 0 
0 0 0 0 0 0 0 0 0 
0 0 0 0 0 0 0 0 0 
0 0 0 0 0 0 0 0 0 
0 0 0 0 0 0 0 0 0 
0 0 0 0 0 0 0 0 0 
0 0 0 0 0 0 0 0 0 
0 0 0 0 0 0 0 0 0 
0 0 0 0 0 0 0 0 0 
0 0 0 0 0 0 0 0 0 
0 0 0 0 0 0 0 0 0 
0 0 0 0 0 0 0 0 0 
0 0 0 0 0 0 0 0 0 
0 0 0 0 0 0 0 0 0 
0 0 0 0 0 0 0 0 0 
0 0 0 0 0 0 0 0 0 
0 0 0 0 0 0 0 0 0 
0 0 0 0 0 0 0 0 0 
0 4.8931e-12 0 0 0 0 0 0 0 
0 0 0 0 0 0 0 0 0 
0 0 0 0 0 0 0 0 0 
0 0 0 0 0 0 0 0 0 
0 0 0 0 0 0 0 0 0 
0 0 0 0 0 0 0 0 0 
0 0 0 0 0 0 0 0 0 
0 0 0 0 0 0 0 0 0 
0 0 0 0 0 0 0 0 0 
0 0 0 6.9327e-12 0 0 0 0 0 
0 0 0 0 0 0 0 0 0 
0 0 0 0 0 0 0 0 0 
0 0 0 0 0 0 0 0 0 
0 0 0 0 0 0 0 0 0 
0 0 0 0 0 0 0 0 0 
0 0 0 0 0 0 0 0 0 
0 0 0 0 0 0 0 0 0 
0 0 0 0 0 0 0 0 0 
0 0 0 0 0 0 0 0 0 
0 0 0 0 0 0 0 0 0 
0 0 0 0 0 0 0 0 0 
0 0 0 0 0 0 0 0 0 
0 0 0 0 0 0 0 0 0 
0 0 0 0 0 0 0 0 4.25579e-12 
0 0 0 0 0 0 0 0 0 
0 0 0 0 0 0 0 0 0 
0 0 0 0 0 0 0 0 0 
0 0 0 0 0 0 0 0 7.9793e-12 
0 0 0 0 0 0 0 0 0 
0 0 0 0 0 0 0 0 0 
0 0 0 3.17316e-12 0 0 0 0 0 
0 0 0 0 0 0 0 0 0 
0 0 0 1.2095e-11 0 0 0 0 0 
0 0 0 0 0 0 0 0 0 
0 0 0 0 0 0 0 0 0 
0 0 6.44826e-12 0 0 0 0 0 0 
0 0 0 0 0 0 0 0 0 
0 0 0 0 0 0 0 0 0 
0 0 0 0 0 0 0 0 0 
0 0 0 0 0 0 0 0 0 
0 0 0 0 0 0 0 0 0 
0 0 0 0 0 0 0 0 0 
0 0 0 0 0 0 0 0 0 
0 0 0 0 0 0 0 0 0 
0 0 0 0 0 0 0 0 0 
0 0 0 0 0 0 0 0 0 
0 0 0 0 0 0 0 0 0 
0 0 0 0 0 0 0 0 0 
0 0 0 0 0 0 0 0 0 
0 0 0 0 0 0 0 0 0 
0 0 0 0 0 0 0 0 0 
0 0 0 0 0 0 0 0 0 
0 0 0 0 0 0 0 0 0 
0 0 0 0 0 0 0 0 0 
0 0 0 0 0 4.03683e-12 0 0 0 
0 0 0 0 0 0 0 0 0 
0 0 0 0 0 0 0 0 0 
0 0 0 0 0 0 0 0 2.06526e-12 
0 0 0 0 0 0 0 0 0 
0 0 0 0 0 0 0 0 0 
0 0 0 0 0 0 0 6.27777e-12 0 
0 0 0 0 0 0 0 0 0 
0 0 0 0 0 0 0 0 0 
0 0 0 0 0 0 0 0 0 
0 0 0 0 0 1.06358e-12 0 0 0 
0 0 0 0 0 0 0 0 0 
0 0 0 0 0 0 0 0 0 
0 0 0 0 0 0 0 0 0 
0 0 0 0 0 0 0 0 0 
0 0 0 0 0 0 0 0 0 
0 0 0 0 0 0 0 0 0 
0 0 0 0 0 0 0 0 0 
0 0 0 0 0 0 0 0 0 
0 0 0 0 0 0 0 0 0 
0 0 0 0 0 0 0 0 0 
0 0 0 0 0 0 0 0 0 
0 0 0 0 0 0 0 0 0 
0 0 0 0 0 0 0 0 0 
0 0 0 0 0 0 0 0 0 
0 0 0 0 0 0 0 0 0 
0 0 0 0 0 0 0 0 0 
0 0 0 0 0 0 0 0 0 
0 0 0 0 0 0 0 0 0 
2.04403e-11 0 0 0 2.64731e-11 1.70939e-11 0 0 0 
0 0 0 0 0 0 0 0 0 
0 1.94135e-11 0 0 0 0 0 0 2.48248e-11 
0 0 0 0 0 0 0 0 0 
0 0 0 0 0 0 0 0 0 
0 0 0 0 0 0 0 0 0 
0 0 0 0 0 0 0 0 0 
0 0 0 0 0 0 0 0 0 
0 0 0 0 0 0 0 0 0 
0 0 0 0 0 0 0 0 0 
0 0 0 0 0 0 0 0 0 
0 0 0 0 0 0 0 0 0 
0 0 0 0 0 0 0 0 0 
0 0 0 0 0 0 0 0 0 
0 0 0 0 0 0 0 0 0 
0 1.50294e-12 0 0 0 0 0 0 0 
0 0 0 0 0 0 0 0 0 
0 0 0 0 0 0 0 0 0 
0 0 0 0 0 0 0 0 0 
0 0 0 0 0 0 0 0 0 
0 0 0 0 0 0 0 0 0 
0 0 0 0 0 0 0 0 0 
0 0 0 0 0 0 0 0 0 
0 0 0 0 0 5.30358e-12 0 0 0 
0 0 0 0 0 0 0 0 0 
0 0 0 0 0 0 0 0 0 
0 0 7.54797e-12 0 0 0 0 0 0 
0 0 0 0 0 1.00892e-11 2.03286e-11 0 0 
0 0 0 0 0 0 0 0 0 
0 0 0 0 0 0 0 0 0 
0 0 0 0 0 0 0 0 0 
9.2977e-12 0 0 0 0 1.95618e-11 0 0 0 
0 0 0 0 0 1.30266e-11 0 0 0 
0 0 0 0 0 0 0 0 0 
0 0 0 0 0 0 0 0 0 
0 0 0 0 0 0 0 0 0 
0 0 0 0 0 1.21607e-11 0 1.64757e-11 0 
0 0 0 0 0 0 0 0 0 
0 0 0 0 0 0 0 0 0 
0 0 0 0 0 0 0 0 0 
0 0 0 0 0 0 0 0 0 
0 0 0 0 0 0 0 0 0 
0 0 0 0 0 0 0 0 0 
0 0 0 0 0 0 0 2.28379e-12 0 
0 0 0 0 0 0 0 0 0 
0 0 0 0 0 0 0 0 0 
0 0 0 0 0 0 0 0 0 
0 0 0 0 0 0 0 0 0 
0 0 0 0 0 0 0 0 0 
0 0 0 0 0 0 0 0 0 
0 0 0 0 0 0 0 0 0 
0 0 0 0 0 0 0 0 0 
0 0 0 0 0 0 0 0 0 
0 0 0 0 0 0 0 0 0 
0 0 0 0 0 0 0 0 0 
0 0 0 0 0 1.17218e-11 0 1.91872e-11 0 
0 0 0 0 0 0 0 0 0 
0 0 0 0 2.82573e-11 0 2.92472e-11 0 0 
1.31063e-11 0 0 0 0 0 0 0 0 
3.15956e-11 0 0 0 0 0 0 0 0 
0 2.40048e-11 2.72202e-11 0 0 0 0 0 0 
0 0 0 0 0 0 0 0 0 
0 0 0 0 5.81209e-12 0 0 0 0 
0 0 0 0 0 0 8.45974e-12 0 0 
0 0 0 2.72865e-12 0 0 0 0 0 
0 0 0 0 0 0 0 0 0 
0 0 0 0 0 0 0 0 0 
0 0 0 0 0 0 0 0 0 
0 0 0 0 0 0 0 0 0 
0 0 0 0 0 0 0 0 0 
0 0 0 0 0 0 0 0 0 
0 0 4.11797e-12 0 0 0 0 0 0 
0 0 0 0 0 0 0 0 0 
0 0 0 0 0 0 0 0 0 
0 0 0 0 0 0 0 0 0 
0 0 0 0 0 0 0 0 0 
0 0 0 0 0 0 0 0 0 
0 0 0 0 0 0 0 0 0 
0 0 0 0 0 0 0 0 0 
0 0 0 0 0 0 0 0 0 
0 0 0 0 0 0 0 0 0 
0 0 1.34714e-11 7.76821e-12 0 0 0 7.51875e-12 0 
0 0 0 0 0 0 0 0 0 
0 2.55634e-11 0 1.21608e-11 0 0 0 0 0 
0 0 1.46713e-11 0 0 0 0 0 0 
0 0 0 0 0 0 0 0 0 
0 0 0 0 0 0 0 1.06526e-11 0 
0 0 0 0 4.40644e-12 0 0 0 0 
0 2.57733e-11 0 0 0 0 0 0 0 
5.07396e-12 0 0 0 0 0 0 0 0 
0 0 0 0 0 0 0 0 0 
8.53531e-12 0 0 0 0 0 0 5.96177e-12 0 
0 0 0 0 0 0 1.56646e-11 0 0 
0 0 0 0 0 0 0 0 0 
0 0 0 0 0 0 0 0 0 
0 0 0 0 0 0 0 0 0 
0 0 0 0 0 0 0 0 0 
0 0 0 0 0 0 0 0 0 
0 0 0 0 0 0 0 0 1.2977e-11 
0 0 0 1.20583e-11 0 0 0 0 0 
0 0 0 0 0 0 0 0 0 
0 0 0 0 0 0 0 0 0 
0 0 0 0 0 0 0 0 0 
0 0 0 0 0 0 0 0 0 
0 0 0 0 0 0 0 0 0 
0 0 0 0 0 0 0 0 0 
0 0 0 0 0 0 0 0 0 
0 0 0 0 0 0 0 0 0 
0 0 0 0 0 0 0 0 0 
0 0 0 0 0 0 0 0 0 
0 0 1.22677e-11 1.66643e-11 0 1.6893e-11 0 0 0 
4.30301e-11 0 4.09067e-11 0 0 0 0 0 0 
2.79662e-11 0 0 0 0 0 0 0 0 
0 2.43445e-11 0 0 0 0 0 5.87371e-11 0 
0 0 0 0 0 0 0 2.5379e-12 0 
0 0 0 0 0 0 0 0 0 
3.93581e-11 0 0 1.13899e-11 0 1.54209e-11 0 0 0 
0 0 0 0 0 0 7.19544e-12 0 0 
0 0 0 0 0 0 0 0 0 
3.10323e-11 0 0 0 0 0 0 0 0 
0 0 0 0 0 0 0 0 0 
0 0 0 1.2778e-11 0 0 1.44699e-11 0 0 
0 0 0 0 0 0 0 0 0 
0 0 0 0 0 0 0 0 0 
0 0 0 0 0 0 0 0 0 
0 0 0 0 0 0 0 0 0 
0 0 0 6.80606e-12 0 0 0 0 0 
0 0 0 0 0 0 0 0 0 
5.54029e-12 0 0 0 0 0 0 0 0 
0 0 0 0 0 0 0 0 0 
0 0 0 0 0 0 0 0 0 
0 0 0 0 0 0 0 0 0 
0 0 0 0 0 0 0 0 0 
0 0 0 0 0 0 0 0 0 
0 0 0 0 0 0 0 0 0 
0 0 0 0 0 0 1.09635e-11 0 0 
2.65497e-11 0 2.94563e-11 0 0 0 0 0 0 
0 0 0 0 0 0 0 0 0 
0 0 0 0 1.82512e-11 0 2.73567e-11 0 0 
2.65935e-11 3.08686e-11 0 0 0 3.98915e-11 0 0 0 
0 0 0 0 0 0 0 0 0 
0 0 0 1.76893e-11 8.0271e-11 0 0 3.18795e-11 0 
4.25113e-11 0 0 0 0 0 0 0 0 
0 2.9681e-11 0 5.05964e-11 0 0 0 0 0 
0 0 0 0 1.22053e-11 0 0 0 1.59591e-11 
0 0 0 0 0 0 0 0 0 
0 0 0 0 0 0 0 0 0 
0 0 0 6.15291e-11 2.04908e-11 0 0 0 0 
0 0 0 0 7.02009e-12 0 0 0 0 
0 9.12262e-12 0 0 0 0 0 0 0 
0 0 9.42967e-12 0 0 0 0 0 0 
0 0 0 0 0 0 0 0 0 
0 0 0 0 0 0 0 0 0 
0 0 0 0 0 0 0 0 0 
0 0 0 0 0 0 0 0 2.89579e-11 
0 0 0 0 0 0 0 0 0 
0 0 0 0 0 0 0 0 0 
0 0 0 0 0 0 0 0 0 
0 0 0 0 0 0 0 0 0 
0 0 0 0 0 0 0 0 0 
0 0 0 0 0 0 0 0 0 
0 0 0 0 0 0 0 0 0 
0 0 0 0 0 0 0 0 0 
0 0 0 0 0 0 0 0 0 
2.25968e-11 0 0 0 4.74859e-11 0 0 0 0 
0 0 0 0 0 0 0 0 0 
0 0 9.77088e-12 2.72959e-11 0 0 0 0 0 
0 0 0 0 1.60077e-11 0 0 0 0 
0 0 0 0 0 7.15671e-11 0 0 0 
2.79701e-11 0 5.8062e-11 1.01869e-10 0 0 0 0 0 
0 0 0 0 0 0 0 0 0 
4.83813e-11 4.50491e-11 0 0 6.10881e-11 0 0 0 0 
2.76865e-11 0 0 0 0 0 0 0 0 
0 0 0 0 2.37614e-11 0 0 0 0 
0 5.7756e-12 0 0 0 0 0 0 0 
0 0 0 1.37105e-12 4.87435e-11 0 0 1.51474e-11 0 
1.47202e-11 0 0 1.57675e-11 0 0 0 0 0 
0 0 0 0 0 0 0 0 0 
0 8.71153e-12 1.10765e-11 0 0 0 0 0 0 
0 1.7207e-11 0 0 0 0 0 0 0 
0 0 0 0 0 0 0 0 0 
0 0 0 0 0 0 0 1.391e-11 0 
0 1.78164e-11 0 0 0 0 0 0 0 
0 0 0 0 9.16499e-12 0 0 0 0 
0 0 1.49583e-12 0 0 0 0 0 0 
0 0 0 0 0 0 0 0 0 
0 0 0 0 0 0 0 0 0 
0 0 0 0 0 0 0 0 0 
0 0 0 0 0 0 0 0 0 
0 0 0 0 0 0 0 0 0 
0 0 0 0 0 1.60698e-11 0 0 0 
0 5.28732e-12 0 0 1.19836e-11 0 0 0 0 
0 0 3.79363e-11 0 0 0 0 4.84731e-11 0 
0 0 0 0 0 2.04649e-11 0 0 0 
0 0 0 0 8.23727e-11 0 2.09244e-10 0 0 
0 0 5.38051e-11 3.90332e-11 3.10272e-11 0 0 3.0501e-11 0 
0 0 0 0 0 8.09562e-12 0 0 8.02525e-11 
0 0 0 0 0 0 7.8084e-11 0 0 
0 0 0 0 7.39923e-11 0 0 5.13343e-11 0 
0 0 0 0 0 2.11155e-11 0 0 2.45913e-12 
2.83122e-11 0 0 0 0 0 2.62495e-11 0 0 
0 0 0 0 0 0 0 0 4.46723e-11 
0 0 0 0 9.01378e-11 0 1.37518e-10 0 0 
0 3.23497e-11 0 0 0 0 2.56472e-11 0 0 
5.5373e-11 0 4.29734e-11 0 0 2.49024e-11 0 0 0 
0 0 0 0 1.24126e-11 0 0 2.87996e-11 0 
0 0 2.15232e-11 2.83715e-11 0 0 0 0 0 
0 0 0 0 0 0 0 0 0 
0 0 0 0 0 0 0 0 0 
0 0 0 0 0 0 0 0 0 
0 0 2.77037e-11 5.81142e-12 0 0 0 3.45451e-11 0 
0 0 0 0 0 0 0 0 0 
0 0 0 0 0 0 0 0 0 
0 0 0 0 0 0 0 0 0 
0 0 0 0 0 0 0 0 0 
0 0 0 0 0 0 0 0 0 
0 0 0 0 0 0 0 0 0 
0 0 0 0 0 0 0 3.63053e-11 0 
0 0 0 0 1.22197e-11 9.97242e-12 0 0 0 
0 0 0 0 0 4.27058e-11 0 0 0 
0 2.39727e-10 0 0 6.56421e-11 0 0 0 0 
3.30648e-12 0 0 2.00182e-11 0 0 0 0 0 
0 0 0 1.98141e-10 2.43266e-08 0 0 0 4.28873e-11 
0 2.39955e-11 0 0 0 0 0 0 0 
0 0 0 0 2.3438e-10 0 0 0 3.39274e-11 
0 1.49589e-11 0 2.29993e-11 0 0 0 0 5.76044e-11 
0 0 1.12674e-11 0 0 0 0 0 0 
0 0 0 0 0 0 0 0 3.7034e-11 
0 0 2.06836e-11 0 1.30988e-11 0 0 0 0 
0 0 4.87685e-11 0 0 0 0 0 0 
0 0 6.66194e-11 6.65107e-11 0 0 0 0 0 
1.24063e-10 1.10543e-11 0 0 0 9.58738e-11 5.50747e-11 0 0 
0 0 0 0 0 0 0 0 0 
0 2.42431e-11 0 0 0 0 0 0 0 
2.56909e-11 0 0 0 0 2.51562e-11 0 0 0 
0 0 0 0 0 0 0 0 0 
0 0 0 1.66784e-12 0 0 0 6.10727e-12 0 
0 0 1.92883e-11 0 0 3.08723e-11 0 0 0 
0 0 0 6.56003e-11 0 4.47172e-11 0 0 0 
0 0 0 0 0 0 0 0 0 
0 0 0 0 0 0 0 0 0 
0 0 0 0 0 0 0 0 0 
0 0 0 0 0 0 0 0 0 
0 0 0 0 0 0 0 0 0 
0 0 0 0 0 0 0 0 0 
0 0 0 0 1.69773e-11 1.47829e-11 0 0 5.37732e-11 
0 0 0 4.08674e-11 8.90029e-13 2.17e-11 0 0 0 
0 0 0 0 0 0 0 0 0 
0 2.81584e-11 4.23493e-13 0 0 2.65218e-11 6.94541e-11 0 3.84346e-12 
0 9.28965e-12 0 0 5.86263e-12 1.72258e-11 4.71167e-11 0 0 
0 0 0 1.74257e-10 0 0 4.58937e-11 0 1.65546e-11 
0 0 0 0 0 0 0 1.52487e-11 5.44137e-11 
2.51271e-11 1.4123e-10 2.5483e-08 0 0 0 0 0 0 
1.90387e-11 0 0 0 2.64852e-08 0 0 1.24852e-10 0 
0 9.1264e-12 5.39171e-11 0 2.44417e-11 1.0342e-10 1.37977e-10 0 0 
0 0 0 5.19088e-11 3.19777e-11 1.37212e-11 0 0 0 
0 0 0 2.02272e-11 0 0 0 0 0 
1.01562e-11 0 1.05514e-10 6.21051e-11 0 0 0 0 0 
0 0 0 2.52166e-08 0 0 0 2.40753e-11 0 
8.97874e-11 0 0 1.84679e-10 5.18318e-11 0 0 6.66325e-11 7.26804e-11 
0 0 2.92811e-11 0 0 3.214e-11 0 0 0 
0 4.47969e-11 0 0 2.17818e-11 0 0 0 0 
0 0 0 0 0 0 0 2.85212e-11 0 
0 0 0 0 0 0 0 0 0 
0 0 0 0 0 0 9.4474e-12 0 0 
0 0 0 0 0 0 0 0 4.60527e-12 
0 0 0 0 0 0 0 0 0 
0 0 1.31687e-11 0 0 0 0 0 0 
0 0 0 0 0 0 0 0 0 
0 0 0 0 0 0 0 0 0 
0 0 0 0 0 0 0 0 0 
0 0 0 0 0 0 0 0 0 
0 0 0 0 0 0 0 0 0 
1.44448e-11 0 0 0 0 7.3042e-11 8.52296e-11 0 0 
0 2.45799e-11 0 0 0 0 0 0 0 
0 0 0 0 0 9.37125e-12 0 0 0 
0 0 0 0 0 0 3.9141e-11 0 0 
0 0 0 0 8.50769e-12 0 8.62447e-11 8.39682e-11 0 
0 0 9.75126e-11 7.45853e-11 7.97628e-12 0 0 0 0 
0 0 0 0 0 4.05454e-11 0 0 0 
1.31787e-10 0 0 0 1.46479e-10 0 0 0 0 
2.12279e-11 0 1.68854e-10 0 0 0 0 0 6.08068e-11 
2.61874e-11 0 7.69341e-11 1.8155e-11 0 0 2.46586e-08 0 0 
2.93907e-11 0 0 0 0 1.26529e-11 0 0 0 
0 0 4.87406e-11 0 0 9.02217e-11 5.93634e-11 0 0 
1.03467e-10 7.13416e-11 1.84329e-11 0 6.61616e-11 0 0 0 1.35281e-10 
0 0 0 3.36124e-11 0 1.72426e-10 0 0 0 
1.01785e-10 0 0 0 5.08546e-11 6.12013e-11 0 6.07452e-12 0 
0 0 1.07143e-11 2.52251e-11 0 0 0 0 0 
0 0 0 0 0 2.60582e-11 0 8.24015e-11 0 
0 0 5.25697e-11 0 7.61562e-11 0 0 0 0 
0 0 0 0 0 0 0 0 0 
0 8.69186e-12 0 0 0 0 0 0 0 
0 0 1.84925e-11 1.02677e-10 1.60789e-11 0 0 0 0 
0 5.79702e-11 0 3.69652e-11 3.15801e-11 0 0 0 1.16696e-11 
0 1.70215e-11 0 0 0 0 0 0 0 
0 0 0 0 0 0 0 0 0 
0 0 0 0 0 0 0 0 0 
0 0 0 0 0 0 0 0 0 
0 0 0 0 0 0 0 0 0 
0 0 0 0 0 0 0 0 0 
0 1.04396e-11 0 5.57068e-11 0 0 0 0 0 
0 0 0 3.81865e-11 4.91282e-11 0 0 0 0 
0 2.63513e-08 0 2.41669e-10 0 0 7.42319e-12 0 0 
0 1.16024e-10 8.64202e-12 0 0 0 0 0 4.51247e-11 
2.10915e-11 0 0 0 0 2.42142e-11 6.78672e-11 0 0 
0 0 0 0 5.54122e-12 0 0 0 0 
0 0 0 0 0 0 5.14473e-11 0 0 
0 0 9.17643e-11 0 3.16841e-11 0 0 0 0 
0 0 0 0 0 0 5.42469e-11 1.53111e-11 0 
0 1.20069e-10 0 0 0 0 3.60382e-10 0 0 
0 0 0 0 0 0 0 1.00665e-11 0 
0 0 0 0 0 2.19451e-10 0 0 6.02192e-11 
0 0 0 4.02615e-11 5.07042e-11 2.66266e-11 0 0 0 
1.18461e-10 0 0 0 0 2.95651e-10 2.73322e-08 2.6164e-10 0 
0 0 1.16409e-10 0 0 9.14852e-11 0 0 2.18322e-12 
1.08055e-11 0 0 0 0 1.04202e-11 0 0 0 
0 6.15793e-11 1.18764e-10 0 0 0 0 4.36135e-11 6.3023e-11 
0 0 0 0 0 0 0 7.58542e-12 0 
0 0 0 0 4.96704e-12 0 0 0 0 
0 0 0 0 3.71443e-11 0 0 0 0 
0 0 7.17162e-11 0 0 2.32732e-10 0 0 0 
0 0 0 5.16564e-11 0 0 0 0 0 
0 0 7.10464e-12 0 0 4.72748e-12 0 0 0 
0 0 0 0 0 0 0 0 0 
0 0 0 0 0 0 0 0 0 
0 0 0 0 0 0 0 0 0 
0 0 0 0 2.26882e-12 0 0 0 0 
0 0 9.40844e-12 0 0 0 0 3.36632e-11 0 
0 6.78304e-11 0 0 2.4729e-08 0 3.51602e-11 0 0 
4.07224e-11 0 3.71412e-11 0 0 0 0 0 0 
3.47851e-10 0 0 0 0 2.73705e-11 1.34979e-10 0 0 
1.56937e-10 0 0 0 8.57495e-11 7.3372e-12 0 0 0 
0 0 3.83795e-11 1.32574e-11 0 0 3.11693e-11 0 0 
0 0 0 2.43629e-11 0 3.07136e-11 0 2.07802e-11 0 
0 0 0 0 0 2.44863e-10 2.05765e-10 0 0 
0 2.94559e-11 6.76672e-11 1.01748e-10 0 0 1.65556e-10 0 0 
4.22604e-11 0 0 0 0 0 1.05922e-10 9.58421e-11 0 
1.40985e-10 0 1.47519e-10 0 0 1.00827e-10 0 6.09818e-11 0 
0 0 1.65861e-11 0 0 0 0 0 0 
3.87699e-11 0 0 2.44673e-08 1.62338e-10 0 1.08589e-10 0 0 
0 0 0 0 0 1.00891e-10 0 0 1.46611e-10 
2.70791e-12 5.13843e-12 0 0 0 1.81279e-10 0 0 1.95482e-10 
0 0 0 0 0 0 1.61505e-10 0 3.30544e-11 
0 0 0 0 0 0 0 0 1.1821e-10 
0 0 0 6.55417e-11 1.5429e-10 0 0 0 0 
0 1.03702e-13 0 0 0 0 0 9.63318e-12 0 
0 0 0 0 0 0 0 0 1.12786e-11 
0 0 0 0 0 0 1.13441e-10 0 7.97034e-11 
0 0 0 2.49536e-08 0 0 0 0 6.71027e-11 
0 0 3.33786e-11 0 2.09395e-11 0 1.27035e-11 0 0 
0 1.01465e-11 0 0 0 0 0 0 0 
0 0 0 0 0 0 0 0 0 
0 0 0 0 0 0 0 0 0 
0 0 0 0 0 0 0 0 0 
0 0 0 0 0 0 0 0 0 
0 0 0 0 0 0 0 0 4.21264e-12 
0 1.88851e-10 8.47486e-11 1.12353e-10 3.65584e-11 0 0 0 0 
0 0 0 0 0 0 0 0 0 
2.12971e-10 0 0 6.9497e-12 0 1.13674e-10 1.43631e-10 4.62111e-11 0 
0 0 0 0 0 0 0 0 0 
2.17559e-11 0 0 0 0 3.03685e-11 0 6.98726e-11 0 
0 0 0 0 2.84401e-11 0 0 1.91724e-11 0 
6.25229e-11 0 0 0 1.55975e-10 0 4.61349e-11 0 0 
2.86199e-10 0 0 3.02954e-10 0 0 0 0 0 
0 0 0 3.67988e-11 0 6.70983e-11 0 0 2.22921e-10 
0 0 0 0 4.66178e-11 5.69524e-12 0 0 0 
0 0 0 0 0 0 0 0 2.004e-11 
0 0 0 0 1.00908e-10 0 0 3.80227e-11 0 
6.74293e-11 0 0 2.71507e-11 0 0 0 0 1.03696e-10 
0 0 0 0 1.52606e-10 2.77192e-10 2.71326e-08 0 0 
0 1.66937e-11 0 0 0 5.79342e-11 0 0 0 
0 5.7012e-12 0 4.93389e-12 7.48376e-11 0 1.62476e-10 8.17282e-11 0 
0 0 0 0 0 4.69613e-11 0 0 0 
0 0 0 0 0 0 0 0 0 
0 0 5.38273e-12 0 0 0 1.40799e-11 0 0 
0 0 0 2.92848e-11 4.92533e-11 0 0 2.24733e-11 3.35333e-11 
0 0 0 0 0 5.43221e-12 0 6.46224e-11 4.10556e-11 
0 0 0 0 0 6.83517e-12 0 0 0 
0 1.40891e-11 0 0 0 0 0 0 0 
0 0 0 0 0 0 0 0 0 
0 0 0 0 0 0 0 0 0 
0 0 0 0 0 0 0 0 0 
0 0 0 0 0 0 0 0 0 
0 0 0 3.85016e-12 0 0 6.88548e-11 1.41792e-11 0 
1.11824e-10 2.07852e-11 3.20461e-11 0 0 0 6.25852e-13 0 1.94971e-10 
0 0 2.4651e-11 0 2.33995e-12 2.71536e-10 0 0 2.15797e-10 
0 0 0 0 2.68274e-08 0 0 4.98601e-11 0 
3.90086e-11 0 0 0 6.648e-11 0 0 0 0 
0 0 0 0 0 0 0 0 0 
0 0 5.18293e-12 0 0 6.34912e-11 6.66313e-11 2.18136e-11 0 
0 0 0 0 0 0 0 0 0 
0 0 0 0 0 0 0 0 1.28364e-10 
0 2.08634e-11 1.76946e-10 1.01973e-10 1.3327e-12 0 1.99189e-11 0 0 
0 0 0 0 0 1.14302e-11 0 0 4.04472e-12 
0 0 0 9.36551e-11 0 0 0 0 3.65693e-11 
3.01926e-11 0 1.41193e-10 0 0 1.4759e-11 0 0 0 
0 8.65992e-11 0 0 0 0 0 1.10436e-10 0 
0 0 0 2.34761e-10 0 0 0 0 0 
0 0 0 0 0 4.36087e-11 0 0 0 
0 0 0 3.61328e-11 0 0 0 0 0 
0 0 0 4.64554e-11 6.09734e-11 9.57586e-11 8.56625e-11 0 0 
0 0 0 0 0 0 0 0 0 
0 0 0 2.45747e-11 0 0 0 0 0 
0 0 0 4.58619e-11 0 1.36405e-10 4.136e-11 0 0 
0 1.92135e-10 0 0 0 0 0 0 0 
0 0 0 0 2.76631e-11 0 0 0 0 
0 0 0 0 0 0 0 0 0 
0 0 0 0 0 0 0 0 0 
0 0 0 0 0 0 0 0 0 
0 0 0 0 0 0 0 0 0 
0 0 0 0 0 0 0 0 0 
0 0 4.45935e-11 0 0 6.05912e-11 0 2.52057e-11 1.72119e-11 
0 0 0 0 0 0 0 0 0 
0 1.41089e-10 0 0 0 0 0 0 0 
0 6.61005e-11 2.47568e-10 0 0 8.6084e-11 0 0 0 
4.24173e-11 0 0 1.86624e-11 0 0 1.60655e-12 0 1.11122e-11 
0 0 0 0 0 0 2.82843e-11 0 6.48489e-11 
0 0 0 6.5478e-11 6.99444e-11 0 0 0 0 
1.75642e-10 0 0 3.03495e-08 0 0 0 3.48481e-08 0 
0 0 0 1.66967e-10 0 1.10564e-10 0 6.66655e-11 1.66826e-10 
1.87197e-11 2.13833e-11 7.35606e-11 0 0 0 0 5.39929e-11 0 
5.64769e-11 0 0 0 0 0 2.08733e-11 0 0 
0 0 0 0 0 0 0 0 0 
2.29898e-11 0 0 0 7.49886e-11 0 0 0 5.66309e-11 
0 0 0 1.78508e-11 0 0 0 5.7743e-11 0 
7.81004e-11 0 0 0 0 0 0 8.88651e-11 4.07047e-11 
0 0 0 0 0 0 1.579e-10 0 0 
0 0 0 0 0 0 0 0 0 
0 0 0 0 0 7.14836e-11 5.48007e-11 0 0 
0 0 0 0 1.30007e-11 0 0 0 0 
0 3.39871e-11 0 6.19312e-11 0 0 0 0 0 
0 0 9.56465e-11 0 0 0 0 0 0 
0 0 4.85747e-11 6.33397e-11 2.08355e-11 1.05993e-10 0 4.53338e-11 1.32392e-10 
0 0 0 0 0 0 0 0 0 
0 0 0 0 0 0 0 0 0 
0 0 0 0 0 0 0 0 0 
0 0 0 0 0 0 0 0 0 
0 0 0 0 0 0 0 0 0 
0 0 0 0 0 0 0 0 0 
0 4.24754e-11 0 9.17719e-11 0 6.05827e-11 0 0 0 
0 0 0 1.0848e-10 3.66977e-11 4.72311e-11 0 9.52542e-11 0 
0 0 0 0 0 0 0 0 0 
0 0 0 0 0 1.66324e-11 0 0 0 
0 0 0 0 0 0 1.02341e-10 0 0 
0 0 8.02592e-11 0 0 0 6.55984e-12 0 0 
0 0 0 0 0 7.87361e-11 0 1.92318e-10 0 
0 0 2.40018e-10 0 0 0 0 0 0 
0 0 0 0 2.632e-08 0 0 0 0 
0 0 0 0 0 0 0 0 0 
0 0 0 0 0 0 0 0 1.59269e-11 
0 0 0 0 1.99849e-11 0 0 0 6.10232e-11 
0 3.08011e-12 0 0 1.34047e-10 0 0 0 0 
4.94555e-11 0 0 0 0 0 9.80868e-11 0 7.87691e-11 
6.3297e-11 9.39337e-11 0 0 0 0 1.15106e-10 0 0 
1.05233e-10 2.49673e-08 0 0 0 1.16666e-10 4.77347e-11 0 0 
0 1.89989e-10 0 0 0 0 2.83893e-08 0 0 
6.47366e-11 0 0 0 0 0 0 0 0 
0 0 0 0 0 0 0 0 0 
0 4.56872e-11 0 0 0 1.01548e-10 5.72903e-11 0 0 
1.04356e-11 0 0 0 0 0 0 0 0 
0 0 0 0 0 0 0 0 7.82358e-11 
4.26598e-11 0 0 0 0 0 0 0 0 
0 0 0 0 0 0 0 0 0 
0 0 0 0 0 0 0 0 0 
0 0 0 0 0 0 0 0 0 
0 0 0 0 0 0 0 0 0 
0 0 0 0 0 0 1.99511e-11 0 0 
0 6.66682e-11 0 0 0 0 0 8.8914e-11 0 
3.90762e-10 0 0 0 3.52772e-11 7.49649e-11 0 0 0 
0 3.85921e-08 3.87945e-08 0 0 0 3.58219e-11 0 0 
0 0 6.01141e-11 9.00144e-12 0 0 0 0 0 
0 0 7.885e-11 0 0 4.39836e-11 0 0 0 
0 0 2.03679e-11 0 0 0 0 0 0 
0 1.3841e-11 0 0 1.14696e-11 0 0 0 0 
0 0 0 0 3.34048e-08 0 0 2.14275e-10 0 
2.59756e-10 0 2.67695e-10 0 0 1.6095e-11 0 0 7.2595e-12 
0 0 0 0 0 5.24944e-11 0 0 0 
0 0 0 0 0 0 0 0 0 
0 7.38578e-11 0 0 0 0 0 0 0 
0 8.9731e-12 0 0 0 0 0 0 0 
0 0 0 1.16206e-10 0 0 0 1.67455e-10 0 
0 6.89886e-12 0 0 0 0 0 0 0 
0 7.19954e-11 1.08497e-11 0 9.56653e-11 5.38142e-11 0 2.1621e-10 0 
0 0 0 0 8.81944e-11 0 0 0 2.19415e-11 
0 0 0 0 0 0 0 0 0 
0 0 0 0 1.48342e-11 1.96961e-11 0 0 2.1051e-11 
0 0 0 0 2.67476e-10 0 0 1.35719e-10 0 
3.18633e-11 1.26096e-10 0 0 0 1.08363e-10 2.18733e-10 0 0 
0 0 0 0 0 0 0 0 1.7501e-11 
0 0 0 0 1.00409e-11 3.5443e-12 0 0 0 
0 0 0 0 0 0 0 0 0 
0 0 0 0 0 0 0 0 0 
0 0 0 0 0 0 0 0 0 
0 0 0 0 0 0 0 0 0 
0 0 0 0 2.26302e-11 0 0 0 0 
0 0 6.53683e-11 0 0 0 0 0 0 
0 1.42741e-11 0 0 4.20445e-11 0 7.92589e-11 0 0 
0 0 2.36091e-10 0 0 9.08494e-11 1.02005e-10 0 0 
0 0 4.19035e-11 0 0 0 0 0 0 
8.12712e-12 0 0 9.16169e-11 0 1.20082e-10 0 0 0 
0 0 0 0 0 0 0 0 0 
0 0 0 0 0 0 1.22306e-11 0 1.84559e-11 
0 4.87882e-10 0 0 0 6.58909e-11 0 3.103e-11 0 
5.66003e-11 0 0 0 0 0 7.69366e-11 0 0 
0 9.15731e-11 0 0 4.44133e-11 0 0 4.89105e-11 0 
0 0 0 0 0 3.14966e-11 0 0 0 
0 0 0 0 1.15354e-11 0 0 0 0 
0 0 0 0 0 0 0 0 0 
0 2.90694e-11 5.1485e-11 0 0 0 0 0 0 
3.56132e-11 0 0 9.04435e-11 0 0 0 0 0 
0 0 0 0 0 2.85933e-11 0 5.81982e-11 0 
4.73682e-11 0 0 2.02999e-10 0 0 0 4.3802e-11 0 
3.65479e-12 0 0 0 0 0 0 0 0 
0 0 0 0 0 0 0 0 0 
1.93198e-10 1.65671e-10 2.68603e-08 0 0 1.89154e-10 0 0 0 
0 0 5.54749e-11 0 0 3.12145e-11 0 0 0 
0 0 0 1.43541e-11 0 0 0 0 0 
0 0 0 0 0 0 0 0 0 
0 0 0 0 0 0 0 0 0 
0 0 0 0 0 0 0 0 0 
0 0 0 0 0 0 0 0 0 
0 0 0 0 0 0 0 0 0 
0 0 0 0 0 0 0 4.87533e-11 0 
0 2.98815e-11 0 0 0 2.68429e-08 0 3.77474e-10 1.21713e-10 
0 0 0 0 2.78526e-10 2.96377e-10 0 0 0 
4.58418e-11 1.96251e-10 0 0 1.09393e-10 0 0 0 0 
0 0 0 0 0 0 0 0 0 
0 0 0 3.85248e-11 9.75832e-11 9.59138e-11 0 3.03593e-10 0 
0 2.25992e-11 0 0 0 0 6.5695e-11 0 0 
0 0 0 1.06121e-10 2.79971e-11 0 4.09157e-11 0 0 
0 0 4.0921e-11 0 1.00791e-10 1.01234e-11 1.25993e-11 0 0 
9.50389e-11 0 1.6798e-11 1.97414e-11 0 0 0 5.17003e-11 0 
0 0 0 0 0 0 0 0 0 
0 0 0 0 3.65532e-11 0 3.88616e-11 0 0 
0 0 0 0 0 0 0 0 0 
0 0 0 0 0 0 5.06819e-11 0 0 
0 0 1.28956e-10 0 0 0 0 1.91461e-11 0 
0 0 0 0 0 5.4676e-11 0 0 1.72502e-11 
1.24791e-10 0 0 0 0 0 0 0 1.88754e-10 
2.72949e-10 0 0 0 9.59033e-11 0 0 1.43892e-11 0 
1.63582e-11 0 0 0 0 0 0 0 0 
0 0 0 0 0 0 0 0 0 
1.11288e-10 8.73084e-11 7.13352e-11 0 0 0 0 0 0 
0 0 2.03518e-10 2.72922e-11 3.36427e-11 1.08639e-10 0 3.11641e-08 0 
0 0 0 0 0 1.67837e-12 0 0 0 
0 0 0 0 0 0 0 0 0 
0 0 0 0 0 0 0 0 0 
0 0 0 0 0 0 0 0 0 
0 0 0 0 0 0 0 0 0 
0 0 0 0 0 0 0 0 0 
0 0 0 0 0 0 0 2.51271e-10 4.33414e-11 
0 0 0 0 2.81451e-10 1.57235e-10 2.59034e-12 2.31639e-12 0 
0 3.42551e-11 0 1.8371e-10 0 0 0 0 0 
3.90315e-11 0 0 0 0 0 0 0 0 
0 0 0 0 0 0 0 1.21263e-10 0 
0 1.28456e-10 0 0 0 0 5.70617e-11 0 2.03952e-11 
8.3954e-12 0 0 5.16005e-11 0 3.81506e-11 0 0 0 
0 0 0 0 0 5.05269e-11 2.12117e-10 2.14923e-11 0 
0 0 0 1.53759e-11 0 0 0 2.30285e-11 0 
0 9.71929e-11 0 0 0 0 0 0 0 
0 5.79096e-11 1.35363e-10 0 0 0 0 0 2.56125e-11 
6.75089e-12 0 6.52552e-11 0 0 0 0 0 0 
1.18411e-10 0 0 0 0 0 0 0 9.37331e-11 
0 0 0 0 0 0 0 0 0 
0 0 0 0 0 0 3.51997e-11 8.08224e-11 0 
6.14846e-12 1.08396e-10 0 0 0 0 0 0 0 
1.05193e-10 0 0 0 0 0 0 0 0 
0 2.65274e-08 0 0 0 0 0 5.1706e-11 0 
0 0 0 0 0 0 0 0 0 
2.55518e-11 0 0 0 1.24568e-10 0 0 0 3.26116e-10 
0 0 0 1.48612e-10 0 0 0 0 0 
0 0 8.41477e-11 0 0 0 0 0 0 
0 0 0 4.62402e-11 0 0 0 0 0 
0 0 0 0 0 0 0 0 0 
0 0 0 0 0 0 0 0 0 
0 0 0 0 0 0 0 0 0 
0 0 0 0 0 0 0 0 0 
0 0 0 0 0 1.67523e-11 0 0 0 
0 0 0 0 0 0 1.38992e-10 0 0 
0 7.61547e-11 7.62464e-11 0 0 0 0 0 0 
0 0 0 0 0 0 0 7.31029e-12 0 
0 0 0 7.39933e-11 0 0 1.67592e-11 2.11834e-11 0 
0 0 0 0 0 0 0 0 0 
0 0 2.60475e-10 2.72078e-08 0 0 0 0 0 
0 0 0 0 0 0 0 5.81132e-11 1.22419e-11 
4.90317e-11 0 7.9911e-11 0 0 0 0 0 0 
0 0 0 0 0 0 0 0 0 
0 1.14486e-10 1.30572e-10 0 0 0 2.65445e-08 0 1.63027e-10 
0 0 0 0 0 0 4.57787e-11 0 0 