# vtk DataFile Version 5.1
vtk output
ASCII
DATASET STRUCTURED_POINTS
DIMENSIONS 250 250 1
SPACING 1 1 1
ORIGIN 0 0 0
POINT_DATA 62500
FIELD FieldData 6
feature_1 1 62500 float
0 0 0 0 0 0 0 0 3.59582e-12 
0 0 0 0 0 0 0 0 0 
0 0 0 0 0 0 0 0 0 
0 0 0 0 0 0 0 0 0 
0 0 0 0 0 0 0 0 0 
0 0 0 0 0 0 0 0 0 
0 0 0 0 0 0 0 0 0 
0 0 0 0 0 0 0 0 0 
0 0 0 0 0 0 0 0 0 
0 0 0 0 0 0 0 0 0 
0 0 0 0 0 0 0 0 0 
0 0 0 0 0 0 0 0 0 
0 0 0 0 0 0 0 0 0 
0 0 0 0 0 0 0 0 0 
0 0 0 0 0 0 0 0 0 
0 0 0 0 0 0 0 0 0 
0 0 0 0 0 0 0 1.03138e-12 0 
0 0 0 0 0 0 0 0 0 
0 0 0 0 0 0 0 0 0 
0 4.00644e-13 0 0 0 0 0 0 0 
0 0 0 0 0 0 0 0 0 
0 0 0 0 0 0 0 0 0 
0 0 0 0 0 0 0 0 0 
0 6.55826e-12 0 8.80719e-14 0 0 0 0 0 
0 0 0 0 0 0 0 0 0 
1.07658e-12 0 0 0 0 0 0 1.41221e-12 0 
0 0 0 0 0 0 0 0 0 
0 0 0 0 0 0 0 0 0 
0 0 0 0 0 3.5954e-12 0 0 0 
0 0 0 0 0 0 0 0 0 
0 0 0 0 0 0 0 0 0 
0 0 0 0 0 0 0 0 0 
0 0 0 0 0 0 0 0 0 
0 0 0 0 0 0 0 0 0 
0 0 0 0 0 0 0 0 0 
0 0 0 0 0 0 0 0 0 
0 0 0 0 0 0 0 0 0 
0 0 0 0 0 0 0 0 0 
0 0 0 0 0 0 0 0 0 
0 0 0 0 0 0 0 0 4.15879e-12 
0 0 0 0 0 0 0 0 0 
0 0 0 0 0 0 0 0 0 
0 0 0 0 0 0 0 0 0 
0 0 0 0 0 0 0 0 0 
0 0 0 3.16432e-13 0 0 0 4.33891e-13 0 
0 0 0 0 0 0 0 0 0 
0 0 0 0 0 0 0 0 0 
0 3.24325e-12 0 0 0 0 0 0 0 
0 0 0 0 0 0 0 0 0 
0 0 0 0 0 0 0 0 0 
0 0 0 0 0 0 0 0 0 
1.63592e-12 0 0 0 0 0 0 8.40998e-13 0 
0 0 0 0 0 0 0 0 0 
0 0 0 0 0 0 0 0 0 
0 0 0 0 0 0 0 0 0 
0 0 0 0 0 0 0 0 0 
0 0 0 0 0 0 0 0 0 
0 0 0 0 0 0 0 0 0 
0 0 0 0 0 0 0 0 0 
0 0 0 0 0 0 0 0 0 
0 0 0 0 0 0 0 0 0 
0 0 0 0 0 0 0 0 0 
0 0 0 0 0 0 0 0 0 
0 0 0 0 0 0 0 0 0 
0 0 0 0 0 0 0 0 0 
0 0 0 0 0 0 0 0 0 
0 0 0 0 0 0 0 0 0 
0 0 0 1.11102e-12 0 0 0 0 0 
0 0 0 0 0 0 0 0 0 
0 0 0 0 0 0 0 0 0 
0 0 0 0 0 0 4.95416e-12 0 0 
0 2.96376e-13 0 0 0 0 0 0 0 
0 0 0 0 0 0 0 0 0 
0 0 0 0 0 0 0 0 0 
0 0 0 0 0 0 0 0 0 
0 0 0 0 0 0 0 0 0 
0 0 0 0 0 0 0 0 0 
0 0 0 0 0 0 0 0 0 
0 0 0 0 0 0 0 0 0 
0 0 0 0 2.0121e-12 0 4.05773e-12 0 0 
0 0 0 0 0 0 0 0 0 
0 0 0 0 0 0 0 0 0 
0 0 0 0 0 0 0 0 0 
0 0 0 0 0 0 0 0 0 
0 0 0 0 0 0 0 0 0 
0 0 0 0 0 0 0 0 0 
0 0 0 0 0 0 0 0 0 
0 0 1.68692e-12 0 0 0 0 0 0 
0 0 0 0 0 0 0 0 0 
0 0 0 0 0 0 0 0 0 
0 0 0 0 0 0 0 0 0 
0 0 0 0 0 0 0 0 0 
0 0 0 0 0 0 0 0 1.01394e-12 
0 0 0 0 0 0 0 0 0 
0 0 0 0 0 0 0 0 0 
0 0 0 0 0 0 0 0 0 
0 0 0 4.5787e-13 0 0 0 0 0 
0 0 0 0 0 0 0 0 0 
0 0 0 0 0 0 0 0 0 
0 0 0 0 0 0 0 0 0 
0 0 0 0 0 0 0 0 0 
0 0 0 0 0 0 0 0 0 
0 0 0 0 0 0 0 0 0 
0 0 0 0 0 0 0 0 0 
0 0 0 0 0 0 0 0 0 
0 0 0 0 0 0 0 0 0 
0 0 0 0 0 0 0 0 0 
0 0 0 0 0 0 0 0 0 
0 0 0 0 0 0 0 0 0 
0 0 0 0 0 0 0 2.09506e-12 0 
0 0 0 0 0 0 0 0 0 
0 0 0 0 0 0 0 0 0 
0 0 0 0 0 0 0 0 0 
0 0 0 0 0 0 0 0 0 
0 0 0 0 0 0 0 0 0 
0 0 0 0 0 0 0 0 0 
0 0 0 0 8.54425e-13 0 0 0 0 
0 0 0 0 0 1.82315e-12 0 0 0 
0 0 0 0 0 0 0 0 0 
0 0 0 0 0 0 0 0 0 
0 0 0 0 0 0 0 0 0 
0 0 0 0 0 0 0 0 0 
0 0 0 0 0 0 0 0 0 
0 0 0 0 0 0 0 0 0 
0 0 0 0 0 0 0 0 0 
0 0 0 0 0 0 0 0 0 
0 0 0 0 0 0 0 0 0 
0 0 0 0 0 0 0 0 0 
0 0 0 0 4.66681e-13 0 0 0 0 
0 0 0 0 0 0 0 0 0 
0 0 0 0 0 0 0 0 0 
0 0 5.79732e-12 0 0 0 0 0 0 
0 0 0 0 0 0 0 0 0 
0 0 0 0 0 0 0 0 2.12109e-12 
0 0 0 0 0 0 0 0 0 
0 0 3.03654e-12 0 0 0 0 0 0 
0 0 0 0 0 0 0 0 0 
0 0 0 0 0 0 0 0 0 
0 0 0 0 0 0 0 0 0 
0 0 0 0 9.43464e-13 0 0 0 0 
0 0 0 0 0 0 0 0 0 
0 0 0 0 0 0 0 0 0 
0 5.27861e-12 0 0 0 0 0 0 0 
0 0 0 0 0 0 0 0 0 
0 0 3.01898e-12 0 0 0 0 0 0 
0 0 0 0 0 0 0 0 0 
0 0 0 0 0 0 0 0 0 
0 0 0 0 0 0 0 0 0 
0 0 0 0 0 0 0 0 0 
0 0 0 0 0 0 0 0 0 
0 0 0 0 0 0 0 0 0 
0 0 1.34867e-12 0 0 0 0 0 0 
0 0 0 0 0 0 0 0 0 
0 0 0 0 0 0 0 0 0 
0 0 0 0 0 0 0 0 0 
0 0 0 0 0 2.57258e-13 0 0 0 
0 0 0 0 0 0 0 0 0 
0 0 1.32128e-12 0 0 0 0 0 0 
0 0 0 0 0 0 0 0 0 
0 0 0 0 0 0 0 0 0 
0 0 0 0 0 0 0 0 0 
0 0 0 0 0 0 0 0 0 
0 0 0 0 0 0 0 0 0 
0 0 0 0 0 0 0 0 0 
0 0 0 0 0 0 0 0 0 
0 0 1.90359e-12 0 0 0 0 2.12732e-12 0 
1.76209e-12 0 0 0 0 0 0 1.01433e-13 0 
0 0 0 0 0 0 0 0 0 
0 0 0 0 0 0 0 0 0 
0 0 0 0 0 0 0 0 0 
0 0 0 0 0 0 0 0 0 
0 0 0 0 0 0 0 1.31547e-12 0 
0 0 0 0 0 0 0 0 0 
0 0 0 0 0 0 0 0 0 
0 0 0 0 0 0 0 0 0 
0 0 0 0 0 0 0 0 0 
0 0 0 0 0 0 0 0 0 
0 0 0 0 0 0 0 0 0 
0 0 2.12074e-12 0 0 0 0 0 0 
0 0 0 0 0 0 0 0 0 
0 0 0 0 0 0 0 0 0 
0 0 0 0 0 0 0 0 0 
0 0 0 0 0 0 0 0 0 
0 0 0 0 0 0 0 0 0 
0 0 0 0 1.11284e-13 0 0 0 0 
0 0 0 0 0 0 0 0 0 
0 0 0 0 8.67161e-13 0 0 0 0 
0 0 0 0 0 0 0 0 0 
0 3.93404e-13 0 0 0 0 0 0 0 
0 0 0 0 0 0 0 0 0 
0 0 0 0 0 0 0 0 0 
0 0 0 0 0 0 0 0 0 
0 0 0 2.5239e-12 0 0 0 0 0 
0 0 0 0 0 0 0 0 0 
0 0 0 0 0 3.76765e-13 0 0 0 
0 0 0 0 0 0 0 0 0 
0 0 0 0 1.47681e-12 0 0 0 0 
0 0 0 2.25775e-13 0 0 0 0 0 
0 0 0 0 0 0 0 0 0 
0 0 0 0 0 0 0 0 0 
3.96691e-12 0 0 0 0 0 0 0 0 
0 0 0 0 0 0 0 0 0 
0 0 0 0 3.00425e-12 0 7.81909e-13 0 0 
0 0 0 0 0 0 0 0 8.6617e-13 
0 0 0 0 0 0 0 0 0 
0 0 0 0 0 0 0 0 0 
0 1.01216e-12 0 0 0 0 0 0 0 
0 0 0 0 0 0 0 0 0 
0 0 0 0 0 0 0 0 0 
0 1.76631e-12 0 0 0 0 0 0 0 
0 0 0 0 0 0 0 0 0 
0 0 0 0 0 0 0 8.94361e-13 0 
0 0 0 0 0 0 0 0 0 
0 0 0 0 0 0 0 0 0 
0 0 0 0 0 0 0 0 0 
0 0 0 0 0 0 0 0 0 
0 8.60358e-13 0 0 0 0 0 0 0 
0 0 0 0 0 0 0 0 0 
0 0 0 7.86673e-13 0 0 0 0 0 
0 0 0 0 0 0 0 0 0 
0 0 0 0 0 0 0 0 0 
6.35158e-12 0 0 0 0 1.11454e-12 0 0 0 
0 0 0 0 0 0 0 0 0 
0 0 0 0 0 0 0 0 0 
0 0 0 0 0 0 0 0 0 
0 0 0 0 0 2.96787e-12 0 0 0 
0 0 0 0 0 0 0 4.23358e-13 0 
0 0 0 0 0 0 0 0 0 
0 0 0 0 0 0 0 0 0 
0 0 0 0 0 0 0 0 0 
0 0 0 0 0 0 0 0 0 
0 0 0 0 0 0 0 0 0 
0 0 0 0 0 0 0 0 0 
0 0 0 0 0 0 0 0 0 
0 1.97816e-13 0 0 0 0 0 0 0 
0 0 0 0 0 0 0 0 0 
0 0 0 0 0 0 0 0 0 
0 0 0 0 1.64811e-12 0 0 0 0 
0 6.95962e-12 0 0 0 0 0 0 0 
0 0 0 5.77596e-13 0 0 0 0 0 
0 0 0 0 0 0 0 0 0 
0 0 0 0 3.56498e-13 0 0 0 0 
0 0 0 0 0 0 0 0 0 
0 0 0 0 0 1.4418e-13 0 6.74486e-13 0 
0 0 0 0 0 0 0 0 0 
0 0 0 0 0 0 0 2.779e-12 0 
0 0 0 0 0 0 0 0 0 
0 0 0 0 0 0 0 0 0 
0 0 0 0 0 0 0 0 0 
0 0 0 0 0 0 0 0 0 
0 0 0 4.80817e-13 0 0 0 0 0 
0 0 0 0 0 0 0 0 0 
0 0 0 0 0 0 0 0 0 
0 0 0 0 0 0 0 0 0 
0 0 0 0 0 0 0 0 0 
0 0 0 0 0 0 0 0 0 
0 0 0 0 0 0 0 0 0 
0 0 0 0 0 0 0 0 0 
0 0 0 0 0 0 0 0 0 
0 0 0 0 0 0 0 0 0 
0 0 0 0 0 0 0 0 0 
0 0 0 0 0 0 0 0 0 
0 0 0 0 0 0 7.40618e-12 0 2.87531e-12 
0 0 0 3.22504e-12 0 0 0 0 0 
0 0 0 0 0 0 0 0 0 
0 0 0 0 0 0 0 0 0 
0 0 0 0 0 0 0 0 0 
0 0 0 0 0 0 0 0 0 
0 0 0 0 0 0 0 0 0 
0 0 0 0 0 0 0 0 0 
0 0 0 0 0 0 0 0 0 
0 0 0 0 0 0 0 0 0 
0 0 0 0 0 0 0 0 0 
0 0 0 0 0 0 0 0 0 
0 0 0 0 0 0 0 0 0 
5.59198e-12 0 0 0 0 0 0 0 0 
0 0 0 0 0 0 0 0 0 
0 0 0 0 0 0 1.5577e-13 0 0 
0 0 0 0 0 0 0 0 0 
0 0 0 0 0 0 0 0 0 
0 0 0 0 1.23048e-12 0 0 0 0 
0 0 0 0 1.56771e-12 0 0 0 0 
0 0 0 0 0 0 0 0 0 
0 0 0 0 0 0 0 0 0 
0 0 0 0 0 0 0 0 0 
0 0 0 0 0 0 0 0 0 
0 0 0 0 0 0 0 0 0 
0 0 0 0 0 0 0 0 0 
0 0 0 0 0 0 0 0 0 
0 0 0 0 0 0 0 0 0 
0 0 0 0 0 0 0 0 0 
0 0 0 0 0 0 0 0 0 
0 0 0 0 0 0 0 0 0 
0 0 0 0 0 0 0 0 0 
0 0 0 0 0 0 0 0 0 
0 0 0 0 0 0 0 0 0 
0 0 0 0 0 0 0 0 0 
0 0 0 0 0 0 0 0 0 
0 1.34817e-12 0 0 0 0 1.67662e-12 0 0 
0 0 0 0 0 0 0 0 0 
0 0 0 0 0 3.06738e-13 0 0 0 
0 0 0 0 0 0 0 0 0 
0 0 0 0 0 0 0 0 0 
0 0 0 0 0 0 0 0 0 
0 0 0 0 0 0 0 8.05837e-13 0 
0 1.2288e-12 0 0 0 0 0 0 0 
0 0 0 0 0 0 0 0 0 
0 0 5.79716e-12 0 0 0 0 0 0 
0 0 0 0 0 0 0 0 0 
0 0 0 0 0 0 0 0 0 
0 0 0 0 0 0 0 2.11297e-12 0 
0 0 0 0 0 0 0 0 0 
0 0 0 0 0 0 0 0 0 
0 0 0 0 0 0 0 0 0 
0 0 6.7764e-13 0 0 0 0 0 0 
0 0 0 0 0 0 0 0 0 
0 0 0 0 0 0 0 0 0 
0 0 0 0 0 0 0 0 0 
0 0 0 0 0 0 0 0 0 
0 0 0 0 0 0 0 0 0 
0 9.60964e-13 0 0 0 0 0 0 0 
0 0 0 0 0 0 0 0 0 
0 0 0 0 0 0 0 0 0 
0 0 0 0 0 0 0 0 0 
0 0 0 0 0 0 0 0 0 
0 0 0 0 0 0 0 0 0 
0 0 0 0 0 0 0 0 0 
0 0 0 0 0 0 0 0 0 
0 0 0 0 0 0 0 0 0 
0 0 3.05441e-14 0 0 0 0 0 0 
0 0 0 0 0 0 0 0 0 
0 0 0 0 0 0 0 0 5.9299e-12 
0 0 0 1.65664e-12 0 0 0 0 0 
0 0 0 0 0 0 0 4.9202e-14 0 
0 0 0 0 0 0 0 0 0 
0 0 0 0 0 0 0 0 0 
0 0 0 0 0 0 0 0 7.74723e-13 
0 0 0 0 0 0 0 0 0 
0 0 0 0 0 0 0 0 0 
0 0 0 4.66078e-12 0 0 0 0 0 
0 0 0 0 0 0 0 0 0 
0 0 0 0 0 0 0 0 0 
0 0 0 0 0 0 0 0 0 
0 0 0 0 0 0 0 0 0 
0 0 0 0 0 0 0 0 0 
0 0 0 0 0 0 0 0 0 
0 0 0 0 0 0 0 0 6.75212e-13 
0 0 0 0 0 0 0 0 0 
0 0 0 0 0 0 0 0 0 
0 0 0 2.08182e-12 0 0 0 1.71634e-14 0 
0 0 0 0 0 0 0 0 0 
0 0 0 0 0 0 0 0 0 
0 0 0 0 0 0 0 0 0 
0 0 0 0 0 0 0 0 0 
0 0 0 0 0 0 0 0 0 
0 0 0 0 0 0 0 0 0 
0 0 0 0 0 0 0 0 0 
0 0 0 0 0 0 0 0 0 
0 0 0 0 0 0 0 0 0 
0 0 0 0 0 0 0 0 0 
0 0 0 0 0 0 0 0 0 
0 0 0 0 0 0 0 0 0 
0 0 0 0 0 0 0 0 0 
0 0 0 0 0 0 0 0 0 
0 0 0 0 0 0 0 0 0 
0 0 0 0 4.14933e-13 0 0 0 0 
0 0 0 0 0 0 0 0 0 
0 0 0 0 0 0 0 0 0 
0 0 0 0 0 0 0 0 0 
0 0 0 0 0 0 0 0 0 
0 0 2.82125e-12 0 0 0 0 0 0 
0 0 0 8.7408e-13 6.69057e-13 0 0 0 0 
0 0 0 0 0 0 0 0 0 
0 0 0 0 0 0 0 0 0 
0 0 0 0 0 0 0 0 0 
0 0 0 0 0 0 0 0 0 
0 0 0 0 0 0 0 0 1.84469e-12 
0 0 0 0 0 0 0 0 0 
0 0 0 0 0 0 0 0 2.11217e-12 
0 0 0 0 0 0 0 0 0 
0 0 0 0 0 0 0 0 1.15297e-12 
0 0 0 0 0 0 0 0 0 
0 0 0 0 0 0 0 0 0 
0 0 0 0 0 0 0 0 0 
0 0 0 0 0 0 0 0 0 
0 0 0 0 0 0 0 0 0 
0 0 0 0 0 0 0 1.11965e-12 0 
0 0 0 0 0 0 0 0 0 
0 0 0 0 0 0 0 0 0 
0 2.44405e-12 0 0 0 0 0 0 0 
0 0 0 0 0 0 0 0 0 
0 0 0 0 0 0 0 0 0 
0 0 0 0 0 0 0 0 0 
0 0 0 2.24093e-13 0 0 0 0 0 
0 0 0 0 0 1.88759e-12 0 0 0 
0 0 0 0 0 0 0 0 0 
0 0 0 0 0 1.11373e-13 0 0 0 
0 0 0 0 0 0 0 0 0 
0 0 0 0 0 0 0 0 0 
0 0 0 0 0 0 0 0 0 
0 0 0 2.65951e-12 0 0 0 0 0 
0 0 0 0 0 0 0 0 0 
0 0 0 0 0 0 0 0 0 
0 0 0 0 0 0 0 0 0 
0 0 0 0 0 0 0 0 0 
0 0 0 0 0 0 0 0 0 
0 0 0 0 0 0 0 0 0 
0 0 0 0 0 0 0 0 0 
0 3.28836e-12 0 0 0 0 0 0 0 
0 0 0 0 0 0 0 0 0 
0 0 0 2.39843e-12 0 0 0 0 0 
0 0 0 0 0 0 0 0 0 
0 0 0 0 0 0 0 0 0 
0 0 0 0 0 0 0 0 0 
0 0 0 0 0 0 0 0 0 
0 0 0 0 0 0 0 0 0 
0 0 0 0 0 0 0 0 0 
0 0 0 0 0 0 0 0 0 
0 0 0 0 0 0 0 0 0 
0 0 0 0 0 0 0 0 0 
0 0 0 0 0 0 0 0 0 
3.41236e-13 0 0 0 0 0 0 0 0 
0 0 0 0 0 0 0 0 0 
0 0 0 0 0 6.21317e-14 0 0 0 
0 0 0 0 0 0 0 0 0 
0 0 0 0 0 0 0 0 0 
0 0 0 0 0 0 0 0 0 
0 0 0 0 0 0 0 0 0 
0 0 0 0 0 0 0 0 0 
0 0 0 0 0 0 0 0 0 
0 0 0 0 0 0 0 0 0 
0 0 0 0 0 0 0 0 0 
0 0 0 0 0 0 6.5613e-13 0 0 
0 0 0 0 0 0 0 0 0 
0 0 0 0 0 0 0 0 0 
0 0 0 0 0 0 0 0 0 
0 0 0 0 0 0 0 0 0 
0 0 0 0 0 0 0 0 0 
0 0 0 0 0 0 0 0 0 
0 3.34611e-13 0 0 0 0 0 0 0 
0 0 0 0 0 0 0 0 0 
0 0 0 0 0 0 0 0 0 
0 0 0 0 0 0 0 0 0 
0 0 0 0 0 0 0 0 0 
0 0 0 0 0 0 0 0 0 
0 0 0 0 0 0 0 0 0 
0 0 0 0 0 0 0 0 0 
2.2619e-12 0 0 0 0 0 0 0 0 
0 0 4.69944e-13 0 0 0 0 0 0 
0 0 0 0 0 0 0 0 0 
0 0 0 0 0 0 0 0 0 
0 0 0 0 0 0 0 0 0 
4.86454e-12 0 0 0 0 0 0 0 0 
0 0 0 0 0 0 0 0 0 
0 0 0 0 0 0 0 0 0 
0 0 2.21501e-13 0 0 0 0 0 0 
0 0 0 0 0 0 0 0 0 
0 0 0 0 0 0 0 0 0 
0 0 0 0 0 0 4.6947e-13 0 0 
0 0 0 0 0 0 0 0 0 
0 0 0 0 1.42107e-11 0 0 0 6.37053e-13 
0 0 0 0 0 0 0 0 0 
0 0 0 0 0 0 0 0 0 
1.52722e-12 0 0 0 0 0 0 0 0 
0 0 0 0 0 0 0 0 0 
0 0 0 0 0 0 2.18034e-12 0 0 
0 0 0 0 0 0 0 0 0 
0 2.24468e-12 0 0 0 0 0 0 0 
0 0 0 0 0 0 1.6192e-12 0 0 
0 0 0 0 0 0 0 0 0 
0 0 0 0 0 0 0 0 0 
0 0 0 0 0 0 0 0 0 
0 0 0 0 0 0 9.24691e-14 0 0 
0 0 0 0 0 0 0 0 2.20453e-12 
0 0 0 0 0 0 0 0 0 
3.53548e-12 0 0 0 0 0 0 0 0 
0 0 0 0 0 0 0 0 0 
0 0 0 2.30008e-12 0 0 0 0 0 
0 0 0 0 0 0 0 0 0 
1.46499e-13 0 0 0 0 0 0 0 0 
0 4.66704e-12 0 0 0 0 0 0 0 
0 1.0949e-12 0 0 0 0 0 0 0 
0 0 0 0 0 0 0 0 0 
0 0 0 0 0 0 0 0 0 
0 0 0 0 0 0 0 0 0 
0 0 0 0 0 0 0 0 4.40549e-12 
0 0 0 0 0 0 0 0 0 
0 0 0 0 0 0 0 0 3.47455e-12 
0 0 0 0 0 0 0 0 0 
0 0 0 6.92277e-12 0 0 0 0 0 
0 0 0 0 0 0 0 0 0 
0 0 0 0 0 0 0 0 0 
0 0 0 0 0 0 0 0 0 
0 0 0 0 0 0 0 0 0 
0 0 0 0 0 0 0 0 0 
0 0 0 0 0 0 0 0 0 
0 0 0 5.11352e-12 0 0 0 0 0 
0 0 0 0 0 0 0 0 0 
0 0 0 1.39199e-12 5.09095e-13 0 0 0 0 
0 0 0 9.00079e-14 0 0 0 0 0 
0 0 0 0 0 0 0 0 0 
0 0 0 0 0 0 0 0 0 
0 0 0 0 0 0 0 0 0 
0 0 0 0 0 0 0 0 0 
0 0 0 0 0 0 0 0 0 
0 0 0 0 0 0 0 0 0 
0 0 0 0 1.3082e-13 0 0 0 4.02014e-12 
0 0 0 0 0 0 0 0 0 
0 0 0 0 0 0 0 0 0 
0 4.90583e-13 0 0 0 0 0 0 0 
0 0 0 1.23468e-11 0 0 0 0 0 
0 0 0 0 0 0 0 0 0 
0 0 0 0 0 0 0 0 0 
0 0 0 6.83193e-13 0 0 8.82369e-13 0 0 
0 0 0 0 3.29059e-12 0 0 0 0 
0 0 0 0 0 0 0 0 0 
0 0 0 0 0 0 0 0 0 
0 0 0 0 0 0 0 0 0 
0 0 0 0 0 0 0 0 0 
0 0 0 0 0 0 0 0 0 
0 0 0 1.70094e-12 0 0 0 0 0 
0 0 0 0 6.30696e-12 0 0 0 0 
0 0 0 0 0 0 0 0 0 
0 0 0 0 0 0 0 0 0 
0 0 0 0 3.74462e-12 0 0 0 0 
0 0 2.31669e-12 0 0 0 0 0 0 
0 0 0 0 0 0 0 1.23524e-12 7.60064e-12 
0 0 0 0 0 0 0 0 0 
0 0 0 0 0 0 0 0 0 
0 0 0 0 0 0 0 0 0 
0 0 0 0 0 0 0 0 0 
0 0 0 0 0 0 0 0 0 
0 0 0 0 0 0 0 0 0 
0 0 0 0 0 0 0 0 0 
0 0 0 0 0 7.96513e-12 0 0 0 
0 0 0 0 0 0 0 0 0 
0 0 0 0 0 0 0 0 0 
0 0 0 0 0 0 0 0 3.65419e-12 
0 0 0 0 0 0 0 0 0 
0 0 0 0 0 0 0 0 0 
0 0 0 0 0 0 0 0 0 
0 0 0 7.47367e-13 0 0 0 0 2.98074e-13 
0 0 0 0 0 0 0 0 0 
0 0 0 0 0 2.61922e-13 0 0 0 
0 0 0 0 0 3.55321e-12 0 0 0 
0 0 0 0 0 0 0 0 0 
0 0 0 0 0 0 0 0 0 
0 0 0 0 0 0 0 1.91969e-12 0 
0 0 0 0 0 0 0 0 0 
0 0 0 0 0 0 0 1.50398e-12 0 
0 0 0 0 0 0 0 0 0 
0 0 0 0 0 0 0 0 0 
0 0 0 0 0 0 0 0 0 
0 0 0 0 0 0 0 0 0 
0 0 0 0 0 0 0 0 0 
0 0 0 0 0 0 0 0 0 
0 0 1.3207e-12 0 0 0 0 0 0 
3.74221e-13 0 0 0 0 0 0 0 0 
0 0 0 0 0 0 0 0 0 
0 0 0 0 0 0 0 0 0 
0 0 0 0 0 0 0 0 0 
0 0 0 0 0 0 0 0 0 
0 0 0 0 0 0 0 0 0 
1.43218e-11 0 0 0 2.46973e-11 7.11568e-12 0 0 0 
0 0 0 0 0 0 1.65884e-12 0 0 
0 2.28124e-11 0 0 0 0 0 0 1.25884e-11 
0 0 0 0 0 0 0 0 0 
0 0 0 0 0 0 0 0 0 
0 0 0 0 0 0 0 0 0 
4.29468e-12 0 0 0 0 0 0 0 0 
0 0 0 0 0 0 0 0 1.00408e-12 
0 0 0 0 0 0 0 0 0 
0 0 0 0 0 0 6.54011e-13 0 0 
0 0 0 0 0 0 0 5.95983e-12 0 
0 0 0 0 0 0 0 0 0 
0 0 0 0 0 0 0 0 0 
0 0 0 0 0 0 0 0 1.62558e-12 
0 0 0 0 0 0 0 0 0 
0 7.03327e-12 0 0 0 0 0 0 0 
0 0 0 0 0 0 0 0 0 
0 0 0 0 0 0 0 0 0 
0 0 0 0 0 0 0 0 0 
0 0 0 0 0 0 0 0 0 
0 0 0 0 0 0 0 0 0 
0 0 0 0 0 0 0 0 0 
0 0 0 0 0 3.74376e-12 0 0 0 
0 0 0 0 0 0 0 0 0 
0 0 0 0 0 0 0 0 0 
0 0 0 0 0 0 0 0 0 
0 0 6.38946e-12 0 0 0 0 0 0 
0 0 0 0 0 2.42483e-11 1.61511e-11 0 0 
0 0 0 0 0 0 0 0 0 
0 0 0 0 0 0 0 0 0 
0 0 0 0 0 0 0 0 0 
9.33397e-12 0 0 0 0 2.51317e-11 0 0 0 
7.34733e-12 0 0 0 0 6.406e-12 0 0 0 
0 0 0 0 0 0 0 0 0 
0 0 0 0 0 0 0 0 0 
0 0 0 0 6.24015e-13 0 0 0 0 
0 0 0 0 0 1.73268e-11 0 1.36694e-11 0 
0 0 0 0 0 0 0 0 0 
0 0 0 1.99139e-12 0 0 0 0 0 
0 0 0 0 0 0 0 0 0 
0 0 0 0 0 0 0 0 0 
0 0 0 0 0 0 0 0 0 
0 0 0 0 0 0 0 0 0 
0 0 0 0 0 0 0 1.21544e-11 0 
0 0 0 0 0 0 0 0 0 
0 0 0 0 0 0 0 0 0 
0 0 0 0 0 0 0 0 0 
0 0 0 0 0 0 0 0 0 
0 0 0 0 0 0 0 2.24146e-12 0 
0 0 0 0 0 0 0 0 0 
0 0 0 0 0 0 0 0 0 
0 0 0 0 0 0 0 0 0 
0 0 0 0 0 2.62989e-13 0 0 0 
0 0 0 0 0 0 0 0 0 
0 0 0 0 0 0 0 0 0 
0 0 0 0 0 2.20488e-11 0 2.69069e-11 0 
0 0 0 0 0 0 0 0 0 
0 0 0 0 1.70158e-11 0 3.55913e-11 0 0 
1.1965e-11 0 0 0 0 0 0 0 0 
3.25759e-11 0 0 0 0 0 7.31715e-14 0 0 
0 1.61883e-11 1.39623e-11 0 0 0 0 0 0 
0 0 0 0 0 0 0 0 0 
0 0 0 0 0 0 1.90572e-12 0 0 
0 0 0 0 0 0 1.45049e-11 0 0 
0 0 0 1.05752e-11 0 4.66183e-12 0 0 0 
0 0 0 0 0 0 0 0 0 
0 0 0 0 0 0 0 0 0 
0 0 0 0 0 0 0 0 0 
0 0 0 0 0 0 0 0 0 
0 0 0 0 0 0 0 1.72114e-12 0 
0 0 0 0 0 0 0 0 0 
0 0 2.11198e-12 0 0 0 0 0 0 
0 0 0 0 0 0 0 0 0 
0 0 0 0 0 0 0 0 0 
0 0 0 0 0 0 0 0 0 
0 0 0 0 0 0 0 0 0 
0 0 0 0 0 0 0 0 0 
0 0 4.01684e-13 0 0 0 0 0 0 
0 0 0 0 0 0 0 0 0 
0 0 0 0 0 0 0 0 0 
0 0 0 0 0 0 0 0 0 
0 0 1.7824e-11 2.36049e-11 0 0 0 4.72434e-12 0 
0 0 0 0 0 0 0 0 0 
0 2.90687e-11 0 0 0 0 0 0 0 
0 0 1.10687e-11 0 0 0 0 0 0 
0 0 0 0 0 0 0 0 0 
0 0 0 0 0 0 0 9.72448e-12 0 
0 0 0 0 0 0 0 0 0 
0 2.6733e-11 0 0 0 0 0 0 0 
1.73115e-11 0 0 0 0 0 0 0 0 
0 0 0 0 0 0 0 0 0 
5.46303e-12 0 0 0 0 2.15323e-12 0 1.35909e-11 0 
0 0 0 0 0 0 8.87583e-12 0 0 
0 2.43804e-12 0 0 0 0 0 0 0 
0 0 0 0 2.47817e-12 0 0 0 0 
0 4.27592e-12 0 0 0 0 0 0 0 
0 0 0 0 0 0 0 0 0 
0 0 0 0 0 0 0 0 0 
0 0 0 0 0 0 0 0 8.36173e-12 
0 0 0 1.62875e-11 0 0 0 0 0 
0 0 0 0 0 0 0 0 0 
2.1601e-12 0 0 0 0 0 0 0 0 
0 0 0 0 0 0 0 0 0 
0 0 2.2578e-12 0 0 0 0 0 5.73675e-12 
0 0 0 0 0 0 0 0 0 
0 0 0 0 0 0 0 0 5.99846e-12 
0 0 0 0 0 0 0 0 0 
0 0 0 0 0 0 0 0 0 
1.74331e-12 0 6.06644e-12 0 0 0 0 0 0 
0 2.67983e-12 0 0 0 0 0 0 0 
0 0 1.20573e-11 1.23764e-11 0 1.62484e-11 0 0 0 
4.06389e-11 0 3.40525e-11 0 0 0 0 0 0 
2.34204e-11 0 0 0 0 0 0 0 0 
0 2.56707e-11 0 0 0 0 0 0 0 
0 0 0 0 0 0 0 0 0 
0 0 0 1.25199e-12 0 0 0 0 0 
4.4047e-11 0 0 9.31026e-12 0 2.02808e-11 0 0 0 
0 0 0 0 0 0 1.23711e-11 0 0 
0 0 0 0 0 0 0 0 5.26167e-13 
3.55581e-11 0 0 0 0 0 0 0 0 
0 0 0 0 0 0 0 0 0 
0 0 0 0 0 0 1.08671e-11 0 0 
0 0 0 0 0 0 0 0 0 
0 0 0 0 0 0 0 0 0 
0 0 0 0 0 0 0 0 0 
0 0 0 0 0 0 0 0 0 
0 0 0 1.51143e-12 0 0 0 0 0 
0 0 0 0 0 0 0 0 0 
9.52017e-12 0 0 0 0 0 0 0 0 
0 0 1.39484e-12 0 0 0 0 0 0 
0 0 0 0 0 0 0 0 0 
0 0 0 0 0 0 0 0 0 
0 0 0 0 0 0 0 0 0 
0 0 0 0 0 0 0 0 0 
0 0 0 0 0 0 0 0 5.83887e-12 
0 0 0 0 3.05895e-12 0 1.22137e-11 0 0 
3.01547e-11 0 4.4624e-11 0 0 0 0 0 0 
0 0 0 0 0 0 0 0 0 
0 0 0 0 1.82063e-11 0 2.31059e-11 0 0 
1.6645e-11 2.1273e-11 0 0 0 4.3328e-11 0 0 0 
0 0 0 0 0 0 0 0 0 
0 0 0 2.64703e-11 7.32358e-11 0 0 3.31595e-11 0 
5.93687e-11 0 0 0 0 0 0 0 0 
0 4.07356e-11 0 0 0 0 0 0 0 
0 0 0 0 3.27638e-12 0 0 0 1.17983e-11 
0 0 0 0 0 0 0 0 0 
0 0 0 0 0 0 1.09974e-12 0 0 
0 0 0 6.04488e-11 2.37704e-11 0 0 0 0 
0 0 0 0 2.59781e-12 0 0 0 0 
0 2.04686e-11 0 0 0 0 0 0 0 
0 0 1.64601e-11 0 0 0 0 0 0 
0 0 0 0 0 0 0 0 0 
0 0 0 0 0 0 0 0 0 
0 0 0 0 0 0 0 0 0 
0 0 0 0 0 0 0 0 3.0424e-11 
0 0 0 0 0 0 0 0 0 
0 0 0 0 0 0 0 8.1813e-13 0 
0 0 0 0 0 0 0 0 0 
0 0 0 0 2.12941e-12 0 0 1.76969e-12 0 
0 0 0 0 0 0 0 0 0 
0 0 0 0 0 0 0 0 0 
0 0 0 0 0 0 0 0 0 
0 0 0 0 0 0 0 0 0 
0 0 0 0 0 0 0 0 0 
2.83245e-11 0 0 0 6.8642e-11 0 0 0 0 
0 0 0 0 0 0 0 0 0 
0 0 1.31732e-11 1.69356e-11 0 0 0 0 0 
0 0 0 0 2.93273e-11 0 0 0 0 
0 0 0 0 0 0 0 0 1.10629e-11 
2.10375e-11 0 6.14019e-11 1.08421e-10 0 0 0 0 0 
0 0 0 0 0 0 0 0 0 
4.16349e-11 5.28061e-11 0 0 6.99681e-11 0 1.72234e-11 0 0 
4.94472e-11 0 0 0 0 0 0 0 0 
0 0 0 0 2.20205e-11 0 0 0 0 
0 1.06991e-11 0 0 0 0 0 0 0 
0 0 0 1.739e-12 4.99361e-11 0 0 1.02877e-11 0 
7.75265e-12 0 0 1.6285e-11 0 0 0 0 0 
0 0 0 0 0 0 0 0 0 
0 8.77743e-12 6.74298e-13 0 0 0 0 0 0 
0 3.40054e-11 0 0 0 0 0 0 1.17308e-12 
0 0 0 0 0 0 0 0 0 
0 0 0 0 0 0 0 5.55572e-12 0 
0 1.49811e-11 0 0 0 0 0 0 0 
1.06045e-12 0 0 0 0 0 0 0 0 
0 0 1.28638e-12 0 0 0 0 0 0 
0 0 0 0 0 0 0 0 0 
0 0 0 0 0 0 0 0 0 
0 0 0 0 0 0 0 0 0 
0 0 0 0 0 0 0 0 0 
0 0 0 0 0 0 0 0 0 
0 0 0 0 0 1.26444e-11 0 0 0 
1.00099e-12 0 0 0 9.8169e-12 0 0 0 0 
0 1.52715e-12 5.2877e-11 0 0 0 0 5.36749e-11 0 
0 0 0 0 0 2.77441e-11 0 0 0 
0 0 0 1.66402e-13 9.11945e-11 0 2.10982e-10 0 0 
0 0 5.15419e-11 3.70475e-11 1.14598e-11 0 0 2.9429e-11 0 
0 0 0 0 0 1.06329e-11 4.51772e-14 0 7.09285e-11 
0 0 0 0 0 0 8.23908e-11 0 0 
0 0 0 0 7.22739e-11 0 0 6.58258e-11 0 
0 0 0 0 0 2.51684e-11 0 2.92496e-12 0 
2.99584e-11 0 0 0 0 0 1.66566e-11 0 0 
0 0 0 0 0 0 0 0 3.97376e-12 
0 0 0 0 8.75796e-11 2.0287e-12 1.43265e-10 0 0 
0 3.87616e-11 0 0 0 0 3.41845e-11 0 0 
7.03474e-11 0 5.00644e-11 0 0 2.49575e-11 0 0 0 
0 0 0 0 2.31425e-11 0 0 0 0 
0 0 1.95301e-11 3.27818e-11 0 0 0 0 0 
0 2.49401e-12 0 0 0 0 0 0 0 
0 0 0 0 0 0 0 0 0 
9.23789e-13 0 0 0 0 0 0 1.89943e-12 0 
0 0 2.14075e-11 8.11893e-12 0 0 0 3.52232e-11 0 
0 0 0 0 0 0 0 0 0 
0 0 0 0 0 0 0 0 0 
0 0 0 0 0 0 0 0 0 
0 0 0 0 0 0 0 0 0 
0 0 0 0 0 0 0 0 0 
0 0 0 2.82649e-12 0 0 0 0 0 
0 0 0 0 0 0 0 4.10637e-11 0 
0 0 0 0 9.72995e-12 7.83282e-12 0 0 0 
0 0 0 0 0 4.67154e-11 0 0 0 
0 2.48342e-10 0 0 6.16935e-11 0 1.39605e-12 0 0 
3.62199e-12 0 0 1.88761e-11 0 0 0 0 0 
0 0 0 2.05671e-10 2.42316e-08 0 0 0 4.44114e-11 
0 2.9342e-11 0 0 0 0 0 0 0 
0 0 2.21126e-12 0 2.54565e-10 0 0 0 3.66334e-11 
0 1.40301e-11 0 2.48169e-11 0 0 0 0 6.81918e-11 
0 1.35255e-13 4.92985e-12 0 0 0 0 0 0 
0 0 0 0 0 0 0 0 4.12971e-11 
0 0 0 0 1.54414e-11 0 0 0 0 
0 0 5.3622e-11 0 2.34231e-12 0 0 0 0 
0 0 5.69636e-11 6.86393e-11 0 0 0 0 0 
1.32813e-10 1.41589e-11 0 0 0 8.78657e-11 4.67901e-11 0 0 
0 0 0 0 0 0 0 0 0 
0 1.87666e-11 0 0 0 0 2.4796e-12 0 0 
1.19479e-11 0 0 0 1.89676e-12 3.3313e-11 0 0 0 
0 0 0 0 0 0 0 0 0 
3.97543e-12 0 0 0 0 0 0 8.84095e-12 0 
0 0 1.50342e-11 0 0 0 0 0 0 
0 0 0 7.20994e-11 0 3.61053e-11 0 0 0 
0 0 0 0 0 0 0 1.83026e-12 0 
0 0 0 0 0 0 0 0 0 
0 0 0 0 0 0 0 0 0 
0 0 0 0 0 0 0 0 0 
0 0 0 0 0 0 0 0 0 
0 0 0 0 0 0 0 0 0 
0 0 0 0 1.9012e-11 8.53161e-12 0 0 7.01861e-11 
0 0 0 5.28874e-11 1.17459e-11 3.50365e-11 0 0 0 
0 0 0 0 0 0 0 0 0 
0 4.34851e-11 0 0 0 2.24429e-11 7.4978e-11 0 7.29758e-12 
0 9.67822e-12 0 0 1.11919e-11 2.32755e-11 4.89515e-11 0 0 
0 0 0 0 0 0 4.52948e-11 0 2.66794e-11 
1.94957e-12 0 0 0 0 0 0 2.88168e-11 5.72133e-11 
3.26623e-11 1.32933e-10 2.53224e-08 0 0 0 0 0 0 
2.21681e-11 0 0 0 2.6302e-08 0 0 1.29764e-10 0 
0 6.63716e-12 5.71782e-11 0 2.569e-11 9.9349e-11 1.4758e-10 0 0 
0 0 0 5.33069e-11 3.42406e-11 3.75163e-12 0 0 0 
0 0 0 1.775e-11 0 0 0 0 0 
1.58887e-11 0 1.15047e-10 5.03657e-11 0 0 0 0 0 
0 0 0 2.50892e-08 0 0 0 2.82279e-11 0 
8.64617e-11 0 0 1.83145e-10 4.68509e-11 0 0 6.71217e-11 8.44764e-11 
0 0 3.74709e-11 0 0 3.2943e-11 0 0 0 
0 4.51086e-11 0 0 1.98768e-11 0 0 0 0 
0 0 0 1.31382e-12 0 0 0 2.65054e-11 0 
0 0 0 1.41754e-12 0 0 0 0 0 
0 0 0 0 0 0 0 0 0 
0 0 0 0 0 0 1.27166e-12 0 7.92263e-12 
0 0 0 0 0 0 0 0 0 
0 0 1.34482e-11 0 0 0 0 0 0 
0 0 0 0 0 0 0 0 0 
0 0 0 0 0 0 0 0 0 
0 0 0 0 0 0 0 0 0 
0 0 0 0 0 0 0 2.74708e-12 0 
0 0 0 0 0 0 0 0 0 
1.88395e-11 0 0 0 0 8.67214e-11 8.71665e-11 0 0 
0 1.72022e-11 0 0 0 0 0 0 0 
0 0 0 0 0 1.80251e-11 0 0 0 
0 0 0 0 0 0 4.44765e-11 0 0 
0 5.84876e-13 0 0 1.92346e-11 0 7.56821e-11 8.26526e-11 0 
0 0 1.0806e-10 8.24838e-11 0 0 0 0 0 
2.13408e-12 0 0 0 7.55074e-12 4.34466e-11 0 0 0 
1.34406e-10 0 0 0 1.44249e-10 4.51155e-12 0 0 0 
2.58149e-11 0 1.85298e-10 0 0 0 0 0 6.21472e-11 
3.06158e-11 0 7.57607e-11 2.7818e-11 0 0 2.45376e-08 0 0 
4.06316e-11 0 0 0 0 1.92045e-11 2.22908e-11 0 0 
0 0 4.03792e-11 0 0 8.02397e-11 8.23002e-11 0 0 
1.0386e-10 7.82742e-11 3.43799e-11 0 0 0 0 0 1.40817e-10 
0 0 0 2.88411e-11 0 1.71289e-10 0 0 0 
1.10958e-10 0 0 0 5.77277e-11 6.32457e-11 0 1.06153e-11 0 
0 0 6.01513e-12 4.34701e-11 0 7.36106e-13 0 0 0 
0 0 0 0 0 3.3162e-11 0 8.78623e-11 0 
0 0 6.26542e-11 0 3.47574e-11 0 0 0 0 
0 0 0 0 0 0 0 0 0 
0 1.16535e-11 0 0 0 0 0 1.76821e-11 0 
0 0 1.49981e-11 8.43383e-11 3.12409e-11 0 0 0 0 
4.63036e-13 5.54889e-11 0 3.43159e-11 3.5176e-11 0 0 0 1.17905e-11 
0 2.33054e-11 0 0 0 0 0 0 0 
0 0 0 0 0 0 0 0 0 
0 0 0 0 0 0 0 0 0 
0 0 0 0 0 0 0 0 0 
0 0 0 0 0 0 0 0 4.22798e-12 
0 0 0 0 0 0 0 0 0 
7.43367e-13 0 0 5.34935e-11 0 0 0 0 0 
0 0 0 5.70839e-11 4.83202e-11 0 0 0 0 
0 2.6169e-08 0 2.44322e-10 0 0 6.53501e-12 0 0 
0 1.29109e-10 0 0 0 0 0 0 0 
2.82068e-11 0 0 0 0 3.29716e-11 6.39982e-11 0 0 
0 0 0 0 1.95014e-12 0 0 0 0 
0 0 0 0 0 0 4.15584e-11 1.40711e-12 0 
0 0 1.03168e-10 1.68497e-12 3.71317e-11 0 0 0 0 
0 0 0 0 0 0 4.95523e-11 1.14642e-11 0 
0 1.25229e-10 0 0 0 0 3.71192e-10 0 0 
0 0 0 0 0 0 0 2.00477e-11 0 
0 0 0 0 0 2.22572e-10 0 0 6.20858e-11 
4.24652e-12 0 0 4.55458e-11 4.94884e-11 3.16317e-11 0 0 0 
1.29657e-10 0 0 0 0 0 2.71651e-08 2.77089e-10 0 
0 0 1.22906e-10 0 0 9.0743e-11 0 0 0 
1.73607e-11 0 0 0 0 1.07405e-11 0 0 2.89086e-12 
0 4.81602e-11 1.25801e-10 0 0 0 0 4.43533e-11 6.54542e-11 
0 0 0 0 0 0 0 1.43507e-11 0 
0 0 0 0 8.60035e-12 0 0 0 0 
0 0 0 0 3.40515e-11 0 0 0 0 
2.53512e-12 0 7.40782e-11 0 0 1.75683e-13 0 0 0 
0 0 0 5.50053e-11 0 0 0 0 0 
0 0 2.86187e-12 0 0 0 0 0 0 
0 0 0 0 0 0 0 0 0 
0 0 0 0 0 0 0 0 0 
0 0 0 0 0 0 3.07377e-13 0 0 
0 0 0 0 0 0 0 0 0 
0 0 2.38361e-12 0 0 0 0 4.38205e-11 0 
0 6.31335e-11 0 0 2.46236e-08 0 3.92241e-11 0 0 
3.8915e-11 0 3.12534e-11 0 0 0 0 0 0 
3.71825e-10 0 0 0 0 1.443e-11 1.4597e-10 0 0 
1.4905e-10 0 0 0 9.00511e-11 5.96731e-12 0 0 0 
1.17191e-11 0 4.0171e-11 1.22694e-11 0 0 4.90968e-11 0 0 
0 0 0 2.22529e-11 0 2.63301e-11 0 2.54855e-11 0 
0 0 0 0 0 2.54241e-10 0 0 0 
5.52641e-12 3.39241e-11 7.23254e-11 9.8868e-11 0 0 1.57449e-10 0 0 
5.01739e-11 0 0 5.43506e-12 0 0 1.03271e-10 9.47934e-11 0 
1.4824e-10 0 1.72e-10 0 0 0 0 5.85134e-11 0 
0 0 2.37283e-11 0 1.44825e-12 0 0 1.46362e-12 2.76433e-12 
5.04299e-11 0 0 2.43588e-08 1.64605e-10 0 1.02324e-10 0 0 
4.78508e-13 0 0 3.89499e-12 0 1.13973e-10 0 0 0 
6.51639e-12 5.83215e-12 0 0 0 1.87882e-10 0 0 1.99955e-10 
0 0 0 0 0 0 7.55472e-11 0 3.58918e-11 
0 0 0 0 0 0 3.28437e-13 0 1.27163e-10 
0 0 0 6.66884e-11 1.62863e-10 0 0 0 0 
0 0 0 0 0 0 0 3.61823e-12 0 
0 0 0 0 0 0 0 0 8.41352e-12 
0 0 0 0 0 0 1.29141e-10 0 8.61673e-11 
0 0 0 2.48225e-08 0 3.82681e-12 0 4.84203e-13 7.33495e-11 
0 0 4.2404e-11 0 1.49602e-11 0 1.22098e-11 0 0 
0 7.82098e-12 0 0 0 0 0 0 0 
0 0 0 0 0 0 0 0 0 
0 0 0 0 0 0 0 0 0 
0 0 0 0 0 0 0 0 0 
0 0 0 0 0 0 0 0 0 
0 0 0 1.44407e-12 0 0 0 0 1.9718e-12 
0 1.78888e-10 8.52155e-11 1.2603e-10 2.96871e-11 0 0 0 0 
0 0 0 0 0 0 0 0 0 
2.39417e-10 0 0 1.45016e-11 0 1.19248e-10 1.50405e-10 4.02947e-11 0 
0 0 0 0 0 0 0 0 0 
2.95552e-11 0 0 0 0 3.88953e-11 0 7.15566e-11 0 
0 0 0 0 2.67927e-11 0 0 1.77665e-11 0 
6.8308e-11 0 0 0 1.56869e-10 0 3.8448e-11 0 0 
2.99938e-10 0 0 3.04658e-10 0 0 0 0 0 
0 0 0 4.21549e-11 0 5.94886e-11 0 0 2.39981e-10 
0 0 0 1.18295e-12 5.58894e-11 0 0 0 0 
0 0 0 0 0 0 0 0 1.46305e-11 
0 0 0 0 9.29599e-11 0 0 4.5264e-11 0 
7.60976e-11 0 0 3.96076e-11 0 0 0 0 1.0617e-10 
0 0 0 0 1.67537e-10 2.86633e-10 2.69605e-08 0 0 
0 3.39702e-12 0 0 0 7.10949e-11 0 0 0 
0 3.55616e-12 0 0 7.50369e-11 0 1.72402e-10 8.64259e-11 0 
0 0 0 0 0 6.37934e-11 0 0 0 
0 0 0 0 0 0 0 0 0 
0 9.69497e-13 0 0 0 0 1.29925e-11 0 0 
0 0 0 3.09635e-11 6.48061e-11 0 0 2.37772e-11 3.17779e-11 
0 0 0 0 0 1.02531e-11 0 7.01805e-11 4.80875e-11 
0 0 0 0 0 8.99797e-12 4.2643e-13 0 0 
0 1.44094e-11 0 0 0 0 0 0 0 
0 0 0 0 0 0 0 0 0 
0 0 0 0 0 0 0 0 0 
0 0 0 0 0 0 0 0 0 
0 0 0 0 4.77295e-13 0 0 0 0 
0 0 0 4.55697e-13 0 0 7.11798e-11 2.1766e-11 0 
1.11945e-10 2.65232e-11 3.77619e-11 0 0 0 7.88075e-12 0 2.05414e-10 
0 0 3.10141e-11 0 0 2.74917e-10 0 0 2.22782e-10 
0 0 0 0 2.6646e-08 0 0 4.14537e-11 0 
4.34762e-11 6.02901e-12 0 0 2.99426e-11 0 0 2.28755e-12 0 
0 0 0 0 0 0 0 0 0 
0 0 0 0 0 6.20014e-11 7.14244e-11 3.4615e-11 0 
0 0 0 0 0 0 0 0 0 
0 0 0 0 0 0 0 0 1.23478e-10 
0 2.06297e-11 1.90613e-10 1.20733e-10 7.07838e-12 0 1.53412e-11 0 0 
2.6105e-12 0 0 0 0 9.09236e-12 0 0 1.09126e-11 
0 0 0 9.95686e-11 0 0 0 0 3.47678e-11 
2.92912e-11 0 1.5096e-10 0 0 6.39456e-12 0 0 0 
0 8.07011e-11 0 0 0 0 0 1.2798e-10 0 
0 0 1.03804e-12 2.39881e-10 0 0 0 0 0 
0 0 0 0 0 5.34477e-11 0 0 0 
0 0 0 3.07352e-11 0 0 0 0 0 
0 0 0 4.50654e-11 5.88271e-11 1.01987e-10 8.1219e-11 0 0 
0 0 6.91239e-13 0 0 0 0 0 0 
0 0 0 3.04551e-11 0 0 0 0 0 
0 0 0 2.77092e-11 0 1.37641e-10 5.40292e-11 0 0 
0 2.00261e-10 0 0 0 0 0 0 0 
4.52119e-13 0 0 0 3.98199e-11 0 0 0 0 
0 0 0 0 0 0 0 0 0 
0 0 0 7.96285e-13 0 0 0 0 0 
1.14882e-12 0 0 0 0 0 1.23755e-12 0 0 
0 0 0 0 0 0 0 0 0 
0 0 0 1.63058e-12 0 0 8.60501e-13 0 0 
0 3.13009e-12 5.46498e-11 0 1.79823e-12 4.62008e-11 0 1.96619e-11 1.79226e-11 
0 0 0 0 0 0 0 0 0 
0 1.4755e-10 0 0 0 0 0 0 2.11872e-12 
0 6.87042e-11 2.68129e-10 0 0 1.01201e-10 0 0 0 
4.50353e-11 0 0 9.2836e-12 0 0 0 0 1.40903e-11 
0 0 0 0 0 0 3.89293e-11 0 0 
0 0 0 7.87093e-11 7.43582e-11 0 0 0 7.5271e-13 
1.71936e-10 0 0 3.00735e-08 0 0 0 3.45446e-08 0 
0 0 0 1.62575e-10 0 1.11621e-10 0 7.38009e-11 1.84135e-10 
2.13624e-11 2.46044e-11 8.62195e-11 0 0 0 0 7.03544e-11 0 
5.77939e-11 0 0 0 0 0 1.10912e-11 0 0 
0 0 0 0 0 0 0 2.36294e-12 0 
3.23028e-11 0 0 0 0 0 0 0 0 
0 0 0 1.28365e-11 7.12911e-14 0 0 5.56459e-11 0 
8.43933e-11 0 0 0 0 0 0 9.31386e-11 3.54629e-11 
0 0 0 0 0 0 1.57729e-10 0 0 
0 0 0 0 0 0 0 0 0 
0 0 0 0 0 7.74464e-11 6.90299e-11 1.31113e-12 0 
0 0 0 0 0 0 0 0 0 
0 3.47565e-11 7.13891e-14 6.26858e-11 0 0 0 0 0 
0 0 1.0319e-10 0 0 1.51266e-12 0 0 0 
0 0 4.97362e-11 7.23879e-11 3.09823e-11 9.97383e-11 0 5.40419e-11 1.52522e-10 
0 0 0 0 0 0 0 0 0 
0 0 0 0 0 0 0 0 0 
0 0 2.71449e-12 0 0 0 0 0 0 
0 0 0 0 0 0 0 0 0 
0 0 0 0 0 0 0 0 0 
0 0 0 0 0 0 0 0 0 
0 4.56449e-11 0 9.38053e-11 0 6.9459e-11 0 0 0 
0 0 0 1.2494e-10 4.10975e-11 3.63489e-11 1.59851e-11 9.67262e-11 0 
0 0 1.39973e-12 0 0 0 0 0 0 
0 0 0 0 0 9.90447e-13 0 0 0 
0 0 0 0 0 0 1.06476e-10 0 0 
0 0 8.31891e-11 0 0 0 7.03708e-12 0 0 
0 0 0 0 0 8.38852e-11 0 1.8056e-10 0 
0 0 2.62408e-10 0 0 0 0 0 0 
0 0 0 0 2.61388e-08 0 0 0 0 
0 0 0 0 0 0 0 0 0 
0 0 0 0 0 0 0 0 1.0905e-11 
0 0 0 0 1.6989e-11 0 0 0 6.28841e-11 
0 1.42597e-12 0 0 1.42995e-10 0 0 0 0 
5.8578e-11 0 0 0 0 0 1.14464e-10 0 8.40536e-11 
6.42285e-11 9.83932e-11 0 0 0 0 1.25194e-10 0 0 
1.06288e-10 2.48488e-08 0 0 0 0 4.30712e-11 0 0 
0 1.95004e-10 0 0 0 0 2.8191e-08 0 0 
7.20114e-11 0 0 2.38459e-12 0 0 0 0 0 
0 0 0 0 0 0 0 0 0 
0 4.3372e-11 0 0 0 1.09961e-10 6.17545e-11 0 0 
1.45043e-11 0 0 7.27435e-13 0 0 0 0 0 
0 0 0 0 0 0 0 0 7.79062e-11 
4.52091e-11 0 0 0 0 0 0 0 0 
0 0 0 0 0 0 0 0 0 
0 0 4.2869e-13 0 0 0 0 0 0 
0 0 0 0 0 0 0 0 0 
0 0 0 0 0 0 0 0 0 
0 0 0 0 0 0 3.40732e-11 0 0 
0 5.71679e-11 0 0 0 0 3.9749e-12 1.02176e-10 0 
4.10965e-10 0 0 0 2.69264e-11 7.59404e-11 0 0 0 
3.96424e-12 3.83191e-08 3.85165e-08 0 0 0 3.01992e-11 0 0 
0 0 7.61164e-11 1.39169e-11 0 0 0 0 0 
0 0 0 0 0 3.67403e-11 0 1.60365e-12 0 
0 0 2.39853e-11 0 0 0 0 0 0 
0 1.98411e-11 0 0 0 0 0 0 0 
2.26376e-12 0 0 0 3.31184e-08 0 0 2.18064e-10 0 
2.74001e-10 0 2.78766e-10 0 0 7.24492e-12 0 0 4.89678e-12 
0 0 0 0 0 4.68333e-11 0 0 0 
0 0 0 0 0 0 0 0 0 
0 8.69455e-11 0 0 0 0 0 0 0 
0 1.41015e-12 0 0 0 0 0 0 0 
0 0 0 1.14148e-10 0 0 0 1.72081e-10 9.90815e-13 
0 1.19082e-11 0 0 0 0 0 0 0 
0 8.72959e-11 8.62947e-12 0 1.09854e-10 5.30039e-11 0 2.15542e-10 0 
0 0 0 0 9.73861e-11 0 0 0 3.62471e-11 
0 0 0 0 0 0 0 0 0 
0 0 0 0 1.35142e-11 3.41654e-11 0 0 2.31337e-11 
0 0 0 0 2.64168e-10 0 0 1.42184e-10 0 
4.78252e-11 1.33338e-10 0 0 0 1.12618e-10 2.36402e-10 0 0 
0 0 0 0 0 0 7.49609e-14 0 1.78104e-11 
0 0 0 0 1.5553e-11 7.09396e-12 0 0 0 
0 0 0 0 0 0 0 0 0 
0 0 0 0 7.19293e-13 1.27395e-12 0 0 0 
0 0 0 0 0 0 0 0 0 
0 0 0 0 0 0 0 0 1.27559e-12 
0 0 0 0 2.22591e-11 0 0 0 0 
0 0 6.57581e-11 0 0 0 0 0 0 
0 1.02514e-11 0 0 4.95535e-11 0 8.91465e-11 0 0 
0 0 2.32696e-10 2.3768e-10 0 8.65676e-11 1.09143e-10 0 0 
0 0 2.9099e-11 0 0 0 0 0 0 
3.20416e-12 0 0 8.10665e-11 0 1.18056e-10 0 0 0 
0 0 0 0 0 0 0 0 0 
0 0 0 0 0 0 1.75649e-11 0 2.1223e-11 
0 4.95907e-10 0 0 0 6.4866e-11 0 2.02015e-11 0 
5.45312e-11 0 0 0 0 0 7.56785e-11 0 0 
0 9.14768e-11 0 0 5.79002e-11 0 0 3.96207e-11 0 
0 0 0 0 0 2.86924e-11 0 0 0 
0 0 8.69077e-13 0 6.88887e-12 0 0 0 0 
0 0 0 0 0 0 0 0 0 
0 3.85216e-11 5.10386e-11 0 0 0 0 0 0 
4.29252e-11 0 0 8.78052e-11 0 0 0 0 0 
0 0 0 0 0 2.48608e-11 0 0 0 
6.26971e-11 0 0 2.3737e-10 0 0 0 3.53692e-11 1.42102e-12 
5.16398e-12 0 0 0 1.77326e-12 0 0 0 0 
0 0 0 0 0 0 0 0 0 
1.98807e-10 1.79813e-10 2.66751e-08 0 0 1.99378e-10 0 5.35586e-13 0 
0 0 4.50609e-11 0 0 2.20568e-11 0 0 0 
0 0 0 1.00533e-11 0 0 0 0 0 
0 0 0 0 0 0 0 0 0 
0 0 0 0 0 0 0 0 0 
0 0 0 0 0 0 0 0 0 
0 0 0 0 0 0 0 0 0 
0 0 0 0 0 0 0 0 0 
0 0 0 0 0 0 0 5.56485e-11 0 