# vtk DataFile Version 5.1
vtk output
ASCII
DATASET STRUCTURED_POINTS
DIMENSIONS 250 250 1
SPACING 1 1 1
ORIGIN 0 0 0
POINT_DATA 62500
FIELD FieldData 6
feature_1 1 62500 float
0 0 0 0 0 0 0 0 0 
0 0 0 0 0 0 0 0 0 
0 0 0 0 0 0 0 0 0 
0 0 0 0 0 0 0 0 0 
0 0 0 0 0 0 0 0 0 
0 0 0 0 0 0 0 0 0 
1.31665e-12 0 0 0 0 0 0 0 0 
0 0 0 0 0 0 0 0 0 
0 0 0 0 0 0 0 0 0 
0 0 0 0 0 0 0 0 0 
0 0 0 0 0 0 0 0 0 
0 0 0 0 0 0 0 0 0 
0 0 0 0 0 0 0 0 0 
0 0 0 0 0 0 0 0 0 
0 0 0 0 0 0 0 0 0 
0 0 0 0 0 0 0 0 0 
0 0 0 0 0 0 0 0 0 
0 0 0 0 0 0 0 0 0 
0 0 0 0 0 0 0 0 0 
0 0 0 0 0 0 0 0 0 
0 0 0 0 1.75125e-12 0 0 0 0 
0 0 0 0 0 0 0 0 0 
0 0 0 0 0 0 0 0 0 
0 7.10074e-13 0 0 8.23462e-13 0 0 0 0 
0 0 0 0 0 0 0 0 0 
0 0 0 0 0 0 0 0 0 
0 0 0 0 0 0 0 0 0 
0 0 0 0 0 0 0 0 0 
0 0 0 0 0 1.20108e-12 0 0 0 
0 0 0 0 0 0 0 0 0 
0 0 0 0 0 0 0 0 0 
0 0 0 0 0 0 0 0 0 
0 0 0 0 0 0 0 0 0 
0 0 0 0 0 0 0 0 0 
0 0 0 0 0 0 0 0 0 
0 0 0 0 0 0 0 0 0 
0 0 0 0 0 0 0 0 0 
0 0 0 0 0 0 0 0 0 
0 0 0 0 0 0 0 0 0 
0 0 0 0 0 0 0 0 1.4662e-12 
0 0 0 0 0 0 0 0 0 
0 0 0 0 0 0 0 0 0 
0 0 0 0 0 0 0 0 0 
0 0 0 0 0 0 0 0 0 
0 0 0 0 0 0 0 0 0 
0 0 0 0 0 0 0 0 0 
0 0 0 0 0 0 0 0 0 
0 0 0 0 0 0 0 0 0 
0 0 0 0 0 0 0 0 0 
0 0 0 0 0 0 0 0 0 
0 0 0 0 0 0 0 0 0 
0 0 0 0 0 0 0 0 0 
0 0 0 0 0 0 0 0 0 
0 0 0 0 0 0 0 0 0 
0 0 0 0 0 0 0 0 0 
0 0 0 0 0 0 0 0 0 
0 0 0 0 0 0 0 0 0 
0 0 0 0 0 0 0 0 0 
0 0 0 0 0 0 0 0 0 
0 0 0 0 0 0 0 0 0 
4.1121e-13 0 0 0 0 0 0 0 0 
0 0 0 0 0 0 0 0 0 
0 0 0 0 0 0 0 0 0 
0 0 0 0 0 0 0 0 0 
0 0 0 0 0 0 0 0 0 
0 0 0 0 0 0 0 0 0 
0 0 0 0 0 0 0 0 0 
0 0 0 0 0 0 0 0 0 
0 0 0 0 0 0 0 0 0 
0 0 0 0 0 0 0 0 0 
0 0 0 0 0 0 0 0 0 
0 1.15299e-12 0 0 0 0 0 0 0 
0 0 0 0 0 0 0 0 0 
0 0 0 0 0 0 0 0 0 
0 0 0 0 0 0 0 0 0 
0 0 0 0 0 0 0 0 0 
0 0 0 0 0 0 0 0 0 
0 0 0 0 0 0 0 0 0 
0 0 0 0 0 0 0 0 0 
0 0 0 0 0 0 0 0 0 
0 0 0 0 0 0 0 0 0 
0 0 0 0 0 0 0 0 0 
0 0 0 0 0 0 0 0 0 
0 0 0 0 0 0 0 0 0 
0 0 0 0 0 0 0 0 0 
0 0 0 0 0 0 0 0 0 
0 0 0 0 0 0 0 0 0 
0 0 0 0 0 0 0 0 0 
0 0 0 0 0 0 1.7259e-12 0 0 
0 0 0 0 0 0 0 0 0 
0 0 0 0 0 0 0 0 0 
0 0 0 0 0 0 0 0 0 
0 0 0 0 0 0 0 1.34654e-13 0 
0 0 0 0 0 0 0 0 0 
0 0 0 0 0 0 0 0 0 
0 0 0 0 0 0 0 0 0 
0 0 0 0 0 0 0 0 0 
0 0 0 0 0 0 0 0 0 
0 0 0 0 0 0 0 0 0 
0 0 0 0 0 0 0 0 0 
0 0 0 0 0 0 0 0 0 
0 0 0 0 0 0 0 0 0 
0 0 0 0 0 0 0 0 0 
0 0 0 0 0 0 0 0 0 
0 0 0 0 0 0 0 0 0 
0 0 0 0 0 0 0 0 0 
0 0 0 0 0 0 0 0 0 
0 0 0 0 0 0 0 0 0 
0 0 0 0 0 0 0 0 0 
0 0 0 0 0 0 0 0 0 
0 0 0 0 0 0 0 0 0 
0 0 0 0 0 0 0 0 0 
0 0 0 0 0 0 0 0 0 
0 0 0 0 0 0 0 0 0 
0 0 0 0 0 0 0 0 0 
0 0 0 0 0 0 0 0 0 
0 0 0 0 0 0 0 0 0 
0 0 0 0 0 2.34886e-12 0 0 0 
0 0 0 0 0 0 0 0 0 
0 0 0 0 0 0 0 0 0 
0 0 0 0 0 0 0 0 0 
0 0 0 0 0 0 0 0 0 
0 0 0 0 1.22394e-12 0 0 0 0 
0 0 0 0 0 0 0 0 0 
0 0 0 0 0 0 0 0 0 
0 0 0 0 0 0 0 0 0 
0 0 0 0 0 0 0 0 0 
0 0 0 0 0 0 0 0 0 
0 0 0 0 0 0 0 0 0 
0 0 0 0 0 0 0 0 0 
0 0 0 0 0 0 0 0 0 
0 0 3.3349e-12 0 0 0 0 0 0 
0 0 0 0 0 0 0 0 0 
0 0 0 0 0 0 0 0 5.02855e-13 
0 0 0 0 0 0 0 0 0 
0 0 0 0 0 0 0 0 0 
0 0 0 0 0 0 0 0 0 
0 0 0 0 0 0 0 0 0 
7.33512e-13 0 0 0 0 0 0 0 0 
0 0 0 0 0 0 0 0 0 
0 0 0 0 0 0 0 0 0 
0 0 0 0 0 0 0 3.8579e-13 0 
0 6.86977e-13 0 0 0 0 0 0 0 
0 0 0 0 0 0 0 0 0 
0 0 0 0 0 0 0 0 0 
0 0 0 0 0 0 0 0 0 
0 0 0 0 0 0 0 0 0 
0 0 0 0 0 0 0 0 0 
0 0 0 0 0 0 0 0 0 
0 0 0 0 0 0 0 0 0 
0 0 0 0 0 0 0 0 0 
0 0 0 0 0 0 0 0 0 
0 0 0 0 0 0 0 0 0 
0 0 0 0 0 0 0 0 0 
0 0 0 0 0 0 0 0 0 
0 0 0 0 0 0 0 0 0 
0 0 0 0 0 0 0 0 0 
0 0 0 0 0 0 0 0 0 
0 0 0 0 0 0 0 0 0 
0 0 0 0 0 0 0 0 0 
0 0 0 0 0 0 0 0 0 
0 0 0 0 0 0 0 0 0 
0 0 0 0 0 0 0 0 0 
0 0 0 0 0 0 0 0 0 
0 0 0 0 0 0 0 0 0 
0 0 0 0 0 0 0 0 0 
1.32899e-12 0 0 0 0 0 0 0 0 
0 0 0 0 0 0 0 0 0 
0 0 0 0 0 0 0 0 0 
0 0 0 0 0 0 9.82976e-13 0 0 
0 0 0 0 3.05678e-13 0 0 0 0 
0 0 0 0 0 0 0 0 0 
0 0 0 0 0 0 0 0 0 
0 0 0 0 0 0 0 0 0 
0 0 0 0 0 0 0 0 0 
0 0 0 0 0 0 0 0 0 
0 0 0 0 0 0 0 0 0 
0 0 0 0 0 0 0 0 0 
0 0 0 0 0 0 0 0 0 
0 0 0 0 0 0 0 0 0 
0 0 0 0 0 0 0 0 0 
0 0 0 0 0 0 0 0 0 
0 0 0 0 0 0 0 0 0 
0 0 0 0 0 0 0 0 0 
0 0 0 0 0 0 0 0 0 
0 0 0 0 0 0 0 0 0 
0 0 0 0 0 0 0 0 0 
0 0 0 0 0 0 0 0 0 
0 0 0 0 0 0 0 0 0 
0 0 0 0 0 0 0 0 0 
0 0 0 0 0 0 0 0 0 
0 0 0 0 0 0 0 0 0 
0 0 0 0 0 0 0 0 0 
0 0 0 0 0 0 0 0 0 
0 0 0 0 0 0 0 0 0 
0 0 0 0 0 0 0 0 0 
0 0 0 0 0 0 0 0 0 
0 0 0 0 0 0 0 0 0 
0 0 0 0 0 0 0 0 0 
0 0 0 0 0 0 0 0 0 
0 0 0 0 0 0 0 0 0 
0 0 0 0 0 0 0 0 0 
0 0 0 0 1.82589e-12 0 1.91763e-12 0 0 
0 0 0 0 0 0 0 0 0 
0 0 0 0 0 0 0 0 0 
0 0 0 0 0 0 0 0 0 
0 0 0 0 0 0 0 0 0 
0 0 0 0 0 0 0 0 0 
0 0 0 0 0 0 0 0 0 
0 0 0 0 0 0 0 0 0 
8.76636e-13 0 0 0 0 0 0 0 0 
0 0 0 0 0 0 0 0 0 
0 0 0 0 0 0 0 0 0 
0 0 0 0 0 0 0 0 0 
0 0 0 0 0 0 0 0 0 
0 0 0 0 0 0 0 0 0 
0 1.27577e-12 0 0 0 0 0 0 0 
0 0 0 0 0 0 0 0 0 
0 0 0 0 0 0 0 0 0 
0 0 0 0 0 0 0 0 0 
0 0 0 0 0 0 0 0 0 
2.28826e-12 0 0 0 0 2.38211e-12 0 0 0 
0 0 0 0 0 0 0 0 0 
0 0 0 0 0 0 0 0 0 
0 0 0 0 0 0 0 0 0 
0 0 0 0 0 0 0 0 0 
0 0 0 0 0 0 0 0 0 
0 0 0 0 0 0 0 0 0 
0 0 0 0 0 0 0 0 0 
0 0 0 0 0 0 0 0 0 
0 0 0 0 0 0 0 0 0 
0 0 0 0 0 0 0 0 0 
0 0 0 0 0 0 0 0 0 
0 0 0 0 0 0 0 0 0 
0 0 0 0 0 0 0 0 0 
0 0 0 0 0 0 0 0 0 
0 0 0 0 0 0 0 0 0 
0 0 0 0 0 0 0 0 0 
0 0 0 0 0 0 0 0 0 
0 0 0 0 0 0 0 0 0 
0 0 0 0 0 0 0 0 0 
0 0 0 0 1.66729e-12 0 0 0 0 
0 0 0 0 0 0 0 0 0 
0 0 0 0 0 0 0 0 0 
0 0 0 0 0 0 0 0 0 
0 0 0 0 0 0 0 0 0 
0 0 0 0 0 0 0 0 0 
0 0 0 1.23953e-12 0 0 0 0 0 
0 0 0 0 0 0 0 0 0 
0 0 0 0 0 0 0 0 0 
0 0 0 0 0 0 0 0 0 
0 0 0 0 0 0 0 0 0 
0 0 0 0 0 0 0 0 0 
0 0 0 0 0 0 0 0 0 
0 0 0 0 0 0 0 0 0 
0 0 0 0 0 0 0 0 0 
0 0 0 0 0 0 0 0 0 
0 0 0 0 0 0 0 0 0 
0 0 0 0 0 0 0 0 0 
0 0 0 0 0 0 0 0 0 
0 0 0 0 0 0 0 0 0 
0 0 0 0 0 0 0 0 0 
0 0 0 0 0 0 2.30883e-12 0 6.74348e-14 
0 0 0 0 0 0 0 0 0 
0 0 0 0 0 0 0 0 0 
0 0 0 0 0 0 0 0 0 
0 0 0 0 0 0 0 0 0 
0 0 0 0 0 0 0 0 0 
0 0 0 0 0 0 0 0 0 
0 0 0 0 0 0 0 0 0 
0 0 0 0 0 0 0 0 0 
0 0 0 0 0 0 0 0 0 
0 0 0 0 0 0 0 0 0 
0 0 0 0 0 0 0 0 0 
0 0 0 0 0 0 0 0 0 
0 0 0 0 0 0 0 0 0 
0 0 0 0 0 0 0 0 0 
0 0 0 0 0 0 0 0 0 
0 0 0 0 0 0 0 0 0 
0 0 0 0 0 0 0 0 0 
0 0 0 0 0 0 0 0 0 
0 0 0 0 0 0 0 0 0 
0 0 0 0 0 0 0 0 0 
0 0 0 0 0 0 0 0 0 
0 0 0 0 0 0 0 0 0 
0 0 0 0 0 0 0 0 0 
0 0 0 0 0 0 0 0 0 
0 0 2.42544e-13 0 0 0 0 0 0 
0 0 0 0 0 0 0 0 0 
0 0 0 0 0 0 0 0 0 
0 0 0 0 0 0 0 0 0 
0 0 0 0 0 0 0 0 0 
0 0 0 0 0 0 0 0 0 
0 0 0 0 0 0 0 0 0 
0 0 0 0 0 0 0 0 0 
0 0 0 0 0 0 0 0 0 
0 0 0 0 0 0 0 0 0 
0 0 0 0 0 0 0 0 0 
0 0 0 0 0 0 0 0 0 
0 0 0 0 0 0 0 0 0 
0 0 0 0 0 8.18568e-14 0 0 0 
0 0 0 0 0 0 0 0 0 
0 0 0 0 0 0 0 0 0 
0 0 0 0 0 0 0 0 0 
0 0 0 0 0 0 0 0 0 
0 0 0 0 0 0 0 0 0 
0 0 0 0 0 0 0 0 0 
0 0 0 0 0 0 0 0 0 
0 0 0 0 0 0 0 0 0 
0 0 0 0 0 0 0 0 0 
0 0 0 0 0 0 0 0 0 
0 0 0 0 0 0 0 0 0 
0 0 0 0 0 0 0 0 0 
0 0 0 0 0 0 0 0 0 
0 0 0 0 0 0 0 0 0 
0 0 0 0 0 0 0 0 0 
0 0 0 0 0 0 0 0 0 
0 0 0 0 0 0 0 0 0 
0 0 0 0 0 0 0 0 0 
0 0 0 0 0 0 0 0 0 
0 0 0 0 0 0 0 0 0 
0 6.37628e-14 0 0 0 0 0 0 0 
0 0 0 0 0 0 0 0 0 
0 0 0 0 0 0 0 0 0 
0 0 0 0 0 0 0 0 0 
0 0 0 0 0 0 0 0 0 
0 0 0 0 0 0 0 0 0 
0 0 0 0 0 0 0 0 0 
0 0 0 0 0 0 0 0 0 
0 0 0 0 0 0 0 0 0 
0 0 0 0 0 0 0 0 0 
0 0 0 0 0 0 0 0 1.74716e-12 
0 0 0 1.47989e-12 0 0 0 0 0 
0 0 0 0 0 0 0 0 0 
0 0 0 0 0 0 0 0 0 
0 0 0 0 0 0 0 0 0 
0 0 0 0 0 0 0 0 0 
0 0 0 0 0 0 0 0 0 
0 0 0 0 0 0 0 0 0 
0 0 0 0 0 0 0 0 0 
0 0 0 0 0 0 0 0 0 
0 0 0 0 0 0 0 0 0 
0 0 0 0 0 0 0 0 0 
0 0 0 0 0 0 0 0 0 
0 0 0 0 0 0 0 0 0 
0 0 0 0 0 0 0 0 0 
0 0 0 0 0 0 0 0 0 
0 0 0 0 0 0 0 0 0 
0 0 0 0 0 0 0 0 0 
0 0 0 0 0 0 0 0 0 
0 0 0 0 0 0 0 0 0 
0 0 0 0 0 0 0 0 0 
0 0 0 0 0 0 0 0 0 
0 0 0 0 0 0 0 0 0 
0 0 0 0 0 0 0 0 0 
0 0 0 0 0 0 0 0 0 
0 0 0 0 0 0 0 0 0 
0 0 0 0 0 0 0 0 0 
0 0 0 0 0 0 0 0 0 
0 0 0 0 0 0 0 0 0 
0 0 0 0 0 0 0 0 0 
0 0 0 0 0 0 0 0 0 
0 0 0 0 0 0 0 0 0 
0 0 0 0 0 0 0 0 0 
0 0 0 0 0 0 0 0 0 
0 0 0 0 0 0 0 0 0 
0 0 0 0 0 0 0 0 0 
0 0 0 0 0 0 0 0 0 
0 0 0 0 0 0 0 0 0 
0 0 0 0 0 0 0 0 0 
0 0 0 0 0 0 0 0 0 
0 0 0 0 0 0 0 0 0 
0 0 0 0 0 0 0 0 0 
0 0 0 0 0 0 0 0 0 
0 0 0 0 0 0 0 0 0 
0 0 0 0 0 0 0 0 0 
0 0 0 0 0 0 0 0 0 
0 0 0 0 0 0 0 0 0 
0 0 0 0 0 0 0 0 0 
0 0 0 0 0 0 0 0 0 
0 0 0 0 0 0 0 0 0 
0 0 0 0 0 0 0 0 0 
0 0 0 0 0 0 0 0 0 
0 0 0 0 0 0 0 0 0 
0 0 0 0 0 0 0 0 0 
0 0 0 0 0 0 0 0 0 
0 0 0 0 0 0 0 0 0 
0 0 0 0 0 0 0 0 0 
0 0 0 0 0 0 0 0 0 
0 0 0 0 0 0 0 0 0 
0 0 0 0 0 0 0 0 0 
0 0 0 0 0 0 0 0 0 
0 0 0 0 0 0 0 0 0 
0 0 0 0 0 0 0 0 0 
0 0 0 0 0 0 0 0 0 
0 0 0 0 0 0 0 0 0 
0 0 0 0 0 0 0 0 0 
0 0 0 0 0 0 0 0 0 
0 0 0 0 0 0 0 0 0 
0 0 0 0 0 0 0 0 0 
0 0 0 2.75788e-13 0 0 0 0 0 
0 0 0 0 0 0 0 0 0 
0 0 0 0 0 0 0 0 0 
0 0 0 0 0 0 0 0 0 
0 0 0 0 0 0 0 0 0 
0 0 0 0 0 0 0 0 0 
0 0 0 0 0 0 0 0 0 
0 0 0 0 0 0 0 0 0 
0 0 0 0 0 0 0 0 0 
0 0 0 0 0 0 0 0 0 
0 0 0 0 0 0 0 0 0 
0 0 0 0 0 0 0 0 0 
0 0 0 0 0 0 0 0 0 
0 0 0 0 0 0 0 0 0 
0 0 0 0 0 0 0 0 0 
0 0 0 0 8.24493e-13 0 0 0 0 
0 0 0 0 0 0 0 0 0 
0 0 0 0 0 0 0 0 0 
0 0 0 0 0 0 0 0 0 
0 0 0 0 0 0 0 0 0 
0 0 0 0 0 0 0 0 0 
0 0 0 0 0 0 0 0 0 
0 0 0 0 0 0 0 0 0 
0 0 0 0 0 0 0 0 0 
0 0 0 0 0 0 0 0 0 
0 0 0 0 0 0 0 0 0 
0 0 0 0 0 0 0 0 0 
0 0 0 0 0 0 0 0 0 
0 0 0 0 0 0 0 0 0 
0 0 0 0 0 0 0 0 0 
0 0 0 0 0 0 0 0 0 
0 0 0 0 0 0 0 0 0 
0 0 0 0 0 0 0 0 0 
0 0 0 0 0 0 0 0 0 
0 0 0 0 0 0 0 0 0 
0 0 0 0 0 0 0 0 0 
0 0 0 0 0 0 0 0 0 
0 0 0 0 0 0 0 0 0 
0 0 0 0 0 0 0 0 0 
0 0 0 0 0 0 0 0 0 
0 0 0 0 0 0 0 0 0 
0 0 3.04192e-13 0 0 0 0 0 0 
0 0 0 0 0 0 0 0 0 
0 0 0 0 0 0 0 0 0 
0 0 0 0 0 0 0 0 0 
0 0 0 0 0 0 0 0 0 
0 0 0 0 0 0 0 0 0 
0 0 0 0 0 0 0 0 0 
0 0 0 0 0 0 0 0 0 
0 0 0 0 0 0 0 0 0 
0 0 0 0 0 0 0 0 0 
0 0 0 0 0 0 0 0 0 
0 0 0 0 0 0 0 0 0 
0 0 0 0 0 0 0 0 0 
0 0 0 0 0 0 0 0 0 
0 0 0 0 0 0 0 0 0 
0 0 0 0 0 0 0 0 0 
0 0 0 0 0 0 0 0 0 
0 0 0 0 0 0 0 0 0 
0 0 0 0 0 0 0 0 0 
0 0 0 0 1.18848e-11 0 0 0 0 
0 0 0 0 0 0 0 0 0 
0 0 0 0 0 0 0 0 0 
0 0 0 0 0 0 0 0 0 
0 0 0 0 0 0 0 0 0 
0 0 0 0 0 0 0 0 0 
0 0 0 0 0 0 0 0 0 
0 1.00479e-13 0 0 0 0 0 0 0 
0 0 0 0 0 0 0 0 0 
0 0 0 0 0 0 0 0 0 
0 0 0 0 0 0 0 0 0 
0 0 0 0 0 0 0 0 0 
0 0 0 0 0 0 0 0 0 
0 0 0 0 0 0 0 0 0 
0 0 0 0 0 1.15242e-12 0 0 0 
0 0 0 0 0 0 0 0 0 
0 0 0 0 0 0 0 0 0 
0 0 0 1.20553e-12 0 0 0 0 0 
0 0 0 0 0 0 0 0 0 
5.91837e-13 0 0 0 0 0 0 0 0 
0 6.24152e-12 0 0 0 0 0 0 0 
0 0 0 0 0 0 0 0 0 
0 0 0 0 0 0 0 0 0 
0 0 3.69716e-13 0 0 0 0 0 0 
0 0 0 0 0 0 0 0 0 
0 0 0 0 0 0 0 0 1.79341e-12 
0 0 0 0 0 0 0 0 0 
0 0 0 0 0 0 0 0 0 
0 0 0 0 0 0 0 0 0 
0 0 0 2.3566e-12 0 0 0 0 0 
0 0 0 0 0 0 0 0 0 
0 0 0 0 0 0 0 0 0 
0 0 0 0 0 0 0 0 0 
0 0 0 0 0 0 0 0 0 
0 0 0 0 0 0 0 0 0 
0 0 0 0 0 0 0 0 0 
0 0 0 0 0 0 0 0 0 
0 0 0 0 0 0 0 0 0 
0 0 0 0 0 0 0 0 0 
0 0 0 0 0 0 0 0 0 
0 0 0 0 0 0 0 0 0 
0 0 0 0 0 0 0 0 0 
0 0 0 0 0 0 0 0 0 
0 0 0 0 0 0 0 0 0 
0 0 0 0 0 0 0 0 0 
0 0 0 0 0 0 0 0 0 
0 0 0 0 0 0 0 0 5.57349e-13 
0 0 0 0 0 0 0 0 0 
0 0 0 0 0 0 0 0 0 
0 0 0 0 0 0 0 0 0 
0 0 0 9.36894e-12 0 0 0 0 0 
0 0 0 0 0 0 0 0 0 
0 0 0 0 0 0 0 0 0 
0 0 0 0 0 0 0 0 0 
0 0 0 0 0 0 0 0 0 
0 0 1.3192e-12 0 0 0 0 0 0 
0 0 0 0 0 0 0 0 0 
0 0 0 0 0 0 0 0 0 
0 0 0 0 0 0 0 0 0 
0 0 0 0 0 0 0 0 0 
0 0 0 0 0 0 0 0 0 
0 0 0 0 0 0 0 0 0 
0 0 0 0 0 0 0 0 0 
0 0 0 0 0 0 0 0 0 
0 0 0 0 0 0 0 0 0 
0 0 0 0 0 0 0 0 0 
0 0 0 0 0 0 0 0 0 
0 0 0 0 0 0 0 0 0 
0 0 0 0 0 0 0 0 0 
0 0 0 0 0 0 0 0 0 
0 0 0 0 0 0 0 0 0 
0 0 0 0 0 0 0 0 0 
0 0 0 0 0 0 0 0 0 
0 0 0 0 0 0 0 0 0 
0 0 0 0 0 7.40159e-12 0 0 0 
0 0 0 0 0 0 0 0 0 
0 0 0 0 0 0 0 0 0 
0 0 0 0 0 0 0 0 6.36253e-12 
0 0 0 1.13664e-12 1.41786e-12 0 0 0 0 
0 0 0 0 0 0 0 0 0 
0 0 0 0 0 0 0 2.08476e-12 0 
0 0 0 0 0 0 0 0 0 
0 0 0 0 0 0 0 0 0 
0 0 0 0 0 0 0 0 0 
0 0 0 0 0 4.33169e-12 0 0 0 
0 0 0 0 0 0 0 0 0 
0 0 0 0 0 0 0 0 0 
0 0 0 0 0 0 0 0 0 
0 0 0 0 0 0 0 0 0 
0 0 0 0 0 0 0 1.77015e-13 0 
0 0 0 0 0 0 0 0 0 
0 0 0 0 0 0 0 0 0 
0 0 0 0 0 0 0 0 0 
0 0 0 0 0 0 0 0 0 
0 0 0 0 0 0 0 0 0 
0 0 0 0 0 0 0 0 0 
0 0 0 0 0 0 0 0 0 
0 0 0 0 0 0 0 0 0 
0 0 0 0 0 0 0 0 0 
0 0 0 0 0 0 0 0 0 
0 0 0 0 0 0 0 0 0 
0 0 0 0 0 0 0 0 0 
0 0 0 0 0 0 0 0 0 
1.40209e-11 0 0 0 2.56308e-11 8.67602e-12 0 0 0 
0 0 0 0 0 0 0 0 0 
0 2.48256e-11 0 0 0 0 0 0 1.9628e-11 
0 0 0 0 0 0 0 0 0 
0 0 0 0 0 0 0 0 0 
0 0 0 0 0 0 0 0 0 
1.34295e-12 0 0 0 0 0 0 0 0 
0 0 0 0 0 0 0 0 1.78699e-12 
0 0 0 0 0 0 0 0 0 
0 0 0 0 0 0 0 0 0 
0 0 0 0 0 0 0 0 0 
0 0 0 0 0 0 0 0 0 
0 0 0 0 0 0 0 0 0 
0 0 0 0 0 0 0 0 0 
0 0 0 0 0 0 0 0 0 
0 3.62684e-12 0 0 0 0 0 0 0 
0 0 0 0 0 0 0 0 0 
0 0 0 0 0 0 0 0 0 
0 0 0 0 0 0 0 0 0 
0 0 0 0 0 0 1.49114e-12 0 0 
0 0 0 0 0 0 0 0 0 
0 0 0 0 0 0 0 0 0 
0 0 0 0 0 5.49677e-12 0 0 0 
0 0 0 0 0 0 0 0 0 
0 0 0 0 0 0 0 0 0 
0 6.89419e-14 0 0 0 0 0 0 0 
0 0 1.16487e-11 0 0 0 0 0 0 
0 0 0 0 0 2.29498e-11 1.67616e-11 0 0 
0 0 0 0 0 0 0 0 0 
0 0 0 0 0 0 0 0 0 
0 0 0 0 0 0 0 0 0 
1.3169e-11 0 0 0 0 2.41147e-11 0 0 0 
0 0 0 0 0 1.23461e-11 0 0 0 
0 0 0 0 0 0 0 0 0 
0 0 0 0 0 0 0 0 0 
0 0 0 0 0 0 0 0 0 
0 0 0 0 0 1.43456e-11 0 1.48994e-11 0 
0 0 0 0 0 0 0 0 0 
0 0 0 1.38439e-12 0 0 0 0 0 
0 0 0 0 0 0 0 0 0 
0 0 0 0 0 0 0 0 0 
0 0 0 0 0 0 0 0 0 
0 0 0 0 0 0 0 0 0 
0 0 0 0 0 0 0 6.91121e-12 0 
0 0 0 0 0 0 0 0 0 
0 0 0 0 0 0 0 0 0 
0 0 0 0 0 0 0 0 0 
0 0 0 0 0 0 0 0 0 
0 0 0 0 0 0 0 1.73097e-12 0 
0 0 0 0 0 0 0 0 0 
0 0 0 0 0 0 0 0 0 
0 0 0 0 0 0 0 0 0 
0 0 0 0 0 0 0 0 0 
0 0 0 0 0 0 0 0 0 
0 0 0 0 0 0 0 0 0 
0 0 0 0 0 1.77388e-11 0 2.88557e-11 0 
0 0 0 0 0 0 0 0 0 
0 0 0 0 2.33242e-11 0 3.32495e-11 0 0 
8.20379e-12 0 0 0 0 0 0 0 0 
3.18001e-11 0 0 0 0 0 0 0 0 
0 1.71257e-11 1.91491e-11 0 0 0 0 0 0 
0 0 0 0 0 0 0 0 0 
0 0 0 0 0 0 0 0 0 
0 0 0 0 0 0 8.62307e-12 0 0 
0 0 0 3.40868e-12 0 0 0 0 0 
0 0 0 0 0 0 0 0 0 
0 0 0 0 0 0 0 0 0 
0 0 0 0 0 0 0 0 0 
0 0 0 0 0 0 0 0 0 
0 0 0 0 0 0 0 0 0 
0 0 0 0 0 0 0 0 0 
0 0 5.45094e-12 0 0 0 0 0 0 
0 0 0 0 0 0 0 0 0 
0 0 0 0 0 0 0 0 0 
0 0 0 0 0 0 0 0 0 
0 0 0 3.15995e-13 0 0 0 0 0 
0 0 0 0 0 0 0 0 0 
0 0 0 0 0 0 0 0 0 
0 0 0 0 3.95067e-12 0 0 0 0 
0 0 0 0 0 0 0 0 0 
0 0 0 0 0 0 0 0 0 
0 0 1.21088e-11 1.6886e-11 0 0 0 9.53462e-12 0 
0 0 0 0 0 0 0 0 0 
0 2.23574e-11 0 7.60337e-13 0 0 0 0 0 
0 0 1.16459e-11 0 0 0 0 0 0 
0 0 0 0 0 0 0 0 0 
0 0 0 0 0 0 0 1.28729e-11 0 
0 0 0 0 0 0 0 0 0 
0 3.42282e-11 0 0 0 0 0 0 0 
1.57892e-11 0 0 0 0 0 0 0 0 
0 0 0 0 0 0 0 0 0 
6.43822e-12 0 0 0 0 0 0 1.1332e-11 0 
0 0 0 0 0 0 9.48277e-12 0 0 
0 0 0 0 0 0 0 0 0 
0 0 0 0 1.46692e-12 0 0 0 0 
0 1.9689e-12 0 0 0 0 0 0 0 
0 0 0 0 0 0 0 0 0 
0 0 0 0 0 0 0 0 0 
0 0 0 0 0 0 0 0 5.94906e-12 
0 0 0 1.86234e-11 0 0 0 0 0 
0 0 0 0 0 0 0 0 0 
0 0 0 0 0 0 0 0 0 
0 0 0 0 0 0 0 0 0 
0 0 0 0 0 0 0 0 0 
0 0 0 0 0 0 0 0 0 
0 0 0 0 0 0 0 0 0 
0 0 0 0 0 0 0 0 0 
0 0 0 0 0 0 0 0 0 
0 0 4.80863e-12 0 0 0 0 0 0 
0 4.32915e-13 0 0 0 0 0 0 0 
0 0 1.09517e-11 1.21163e-11 0 1.65333e-11 0 0 0 
4.06048e-11 0 4.22654e-11 0 0 0 0 0 0 
2.11121e-11 0 0 0 0 0 0 0 0 
0 2.61316e-11 0 0 0 0 0 0 0 
0 0 0 0 0 0 0 0 0 
0 0 0 1.08733e-13 0 0 0 0 0 
4.07884e-11 0 0 3.95067e-12 0 1.43733e-11 0 0 0 
0 0 0 0 0 0 6.59061e-12 0 0 
0 0 0 0 0 0 0 0 4.89834e-13 
3.33246e-11 0 0 0 0 0 0 0 0 
0 0 0 0 0 0 0 0 0 
0 0 0 0 0 0 1.03179e-11 0 0 
0 0 0 0 0 0 0 0 0 
0 0 0 0 0 0 0 0 0 
0 0 0 0 0 0 0 0 0 
0 0 0 0 0 0 0 0 0 
0 0 0 4.15411e-12 0 0 0 0 0 
0 0 0 0 0 0 0 0 0 
1.30588e-11 0 0 0 0 0 0 0 0 
0 0 0 0 0 0 0 0 0 
0 0 0 0 0 0 0 0 0 
0 0 0 0 0 0 0 0 0 
0 0 0 0 0 0 0 0 0 
0 0 0 0 0 0 0 0 0 
0 0 0 0 0 0 0 0 1.3197e-12 
0 0 0 0 0 0 1.06024e-11 0 0 
2.86913e-11 0 4.43271e-11 0 0 0 0 0 0 
0 0 0 0 0 0 0 0 0 
0 0 0 0 2.35893e-11 0 2.81582e-11 0 0 
2.21789e-11 2.38307e-11 0 0 0 4.3262e-11 0 0 0 
0 0 0 0 0 0 0 0 0 
0 0 0 2.6385e-11 7.09693e-11 0 0 2.79126e-11 0 
5.1388e-11 0 0 0 0 0 0 0 0 
0 4.20886e-11 0 0 0 0 0 0 0 
0 0 0 0 1.12311e-11 0 0 0 1.62354e-11 
0 0 0 0 0 0 0 0 0 
0 0 0 0 0 0 0 0 0 
0 0 0 5.52864e-11 2.24098e-11 0 0 0 0 
0 0 0 0 4.35529e-12 0 0 0 0 
0 1.5713e-11 0 0 0 0 0 0 0 
0 0 1.68322e-11 0 0 0 0 0 0 
0 0 0 0 0 0 0 0 0 
0 0 0 0 0 0 0 0 0 
0 0 0 0 0 0 0 0 0 
0 0 0 0 0 0 0 0 2.92081e-11 
0 0 0 0 0 0 0 0 0 
0 0 0 0 0 0 0 0 0 
0 0 0 0 0 0 0 0 0 
0 0 0 0 0 0 0 1.7464e-12 0 
0 0 0 0 0 0 0 0 0 
0 0 0 0 0 0 0 0 0 
0 0 0 0 0 0 0 0 0 
0 0 0 0 0 0 0 0 0 
0 0 0 0 0 0 0 0 0 
3.36842e-11 0 0 0 5.87153e-11 0 0 0 0 
0 0 0 0 0 0 0 0 0 
0 0 1.2217e-11 2.11794e-11 0 0 0 0 0 
0 0 0 0 2.59624e-11 0 0 0 0 
0 0 0 0 0 0 0 0 8.36315e-12 
2.15128e-11 0 6.15222e-11 1.04646e-10 0 0 0 0 0 
0 0 0 0 0 0 1.12014e-12 0 0 
4.36544e-11 5.30458e-11 0 0 6.53045e-11 0 1.74043e-11 0 0 
4.44698e-11 0 0 0 0 0 0 0 0 
0 0 0 0 2.55807e-11 0 0 0 0 
0 8.84727e-12 0 0 0 0 0 0 0 
0 0 0 2.46762e-12 4.85564e-11 0 0 1.02988e-11 0 
7.42368e-12 0 0 1.75574e-11 0 0 0 0 0 
0 0 0 0 0 0 0 0 0 
0 7.79827e-12 9.14866e-12 0 0 0 0 0 0 
0 2.89887e-11 0 0 0 0 0 0 4.76885e-13 
0 0 0 0 0 0 0 2.30875e-12 0 
0 0 0 0 0 0 0 5.70449e-12 0 
0 1.19795e-11 0 0 0 0 0 0 0 
0 0 0 0 2.59598e-12 0 0 0 0 
0 0 0 0 0 0 0 0 0 
0 0 0 0 0 0 0 0 0 
0 0 0 0 0 0 0 0 0 
0 0 0 0 0 0 0 0 0 
0 0 0 0 0 0 0 0 0 
0 0 0 0 0 0 0 0 0 
0 0 0 0 0 1.46927e-11 0 0 0 
0 0 0 0 1.27011e-11 0 0 0 0 
0 0 4.89181e-11 0 0 0 0 4.84561e-11 0 
0 0 0 0 0 1.79452e-11 0 0 0 
0 0 0 0 8.96748e-11 0 2.09734e-10 0 0 
0 0 5.23616e-11 3.66859e-11 1.69173e-11 0 0 3.14348e-11 0 
0 0 0 0 0 6.84653e-12 0 0 7.17786e-11 
0 0 0 0 0 0 8.01913e-11 0 0 
0 0 0 0 7.35402e-11 0 0 5.88962e-11 0 
0 0 0 0 0 2.46687e-11 0 0 0 
3.4058e-11 0 0 0 0 0 2.00141e-11 0 0 
0 0 0 0 0 0 0 0 0 
0 0 0 0 8.49969e-11 0 1.38932e-10 0 0 
0 3.77911e-11 0 0 0 0 3.37984e-11 0 0 
6.70838e-11 0 4.59303e-11 0 0 2.34907e-11 0 0 0 
0 0 0 0 2.11036e-11 0 0 0 0 
0 0 2.73803e-11 3.08462e-11 0 0 0 0 0 
0 1.42798e-12 0 0 0 0 0 0 0 
0 0 0 0 0 0 0 0 0 
1.21067e-12 0 0 0 0 0 0 0 0 
0 0 2.36603e-11 6.1659e-12 0 0 0 3.69167e-11 0 
0 0 0 0 0 0 0 0 0 
0 0 0 0 0 0 0 0 0 
0 0 0 0 0 0 0 0 0 
0 0 0 0 0 0 0 0 0 
0 0 0 0 0 0 0 0 0 
0 0 0 1.7306e-12 0 0 0 0 0 
0 0 0 0 0 0 0 3.85415e-11 0 
0 0 0 0 9.33076e-12 6.92537e-12 0 0 0 
0 0 0 0 0 4.97122e-11 0 0 0 
0 2.5037e-10 0 0 6.54748e-11 0 0 0 0 
2.58972e-12 0 0 1.50905e-11 0 0 0 0 0 
0 0 0 2.05083e-10 2.42331e-08 0 0 0 4.81034e-11 
0 3.05824e-11 0 0 0 0 0 0 0 
0 0 0 0 2.51596e-10 7.71171e-15 1.60911e-13 0 4.21893e-11 
0 1.61215e-11 0 2.43569e-11 0 0 0 0 6.45698e-11 
0 7.18524e-13 2.17369e-12 0 0 0 0 0 0 
0 0 0 0 0 0 0 0 4.09047e-11 
0 0 0 0 1.5641e-11 0 0 0 1.16677e-12 
0 0 5.00172e-11 0 0 0 0 0 0 
0 0 6.21852e-11 6.95973e-11 0 0 0 0 0 
1.3241e-10 1.58189e-11 0 0 0 9.22723e-11 5.20363e-11 0 0 
0 0 0 0 0 0 0 0 0 
0 1.89257e-11 0 0 0 0 1.99652e-13 0 0 
1.66632e-11 0 0 0 3.65444e-13 2.75056e-11 0 0 0 
0 0 0 0 0 0 0 0 0 
0 0 0 0 0 0 0 1.13368e-11 0 
0 0 1.64485e-11 0 0 0 0 0 0 
0 0 0 7.31424e-11 0 3.56646e-11 0 0 0 
0 0 0 0 0 0 0 0 0 
0 0 0 0 0 0 0 0 0 
0 0 0 0 0 0 0 0 0 
0 0 0 0 0 0 0 0 0 
0 0 0 0 0 0 0 0 0 
0 0 0 0 0 0 0 0 0 
0 0 0 0 1.84626e-11 8.13454e-12 0 0 6.65474e-11 
0 0 0 5.03215e-11 8.78381e-12 3.27144e-11 0 0 0 
0 0 0 0 0 0 0 0 0 
0 4.08427e-11 0 0 0 2.55275e-11 7.49139e-11 0 8.17411e-12 
0 1.21019e-11 0 0 8.68582e-12 2.18617e-11 4.65587e-11 0 0 
0 0 0 0 0 0 4.88318e-11 0 2.47656e-11 
3.39992e-13 0 0 0 0 0 0 2.39341e-11 6.06202e-11 
3.12863e-11 1.34732e-10 2.53262e-08 0 0 0 0 0 0 
2.24196e-11 0 0 0 2.63032e-08 0 0 1.31599e-10 0 
0 5.4666e-12 5.30078e-11 0 2.60601e-11 1.04528e-10 1.45694e-10 0 0 
0 0 0 5.05843e-11 3.2482e-11 1.06682e-11 0 0 0 
0 0 0 2.11056e-11 0 0 0 0 0 
9.18684e-12 0 1.18677e-10 5.73932e-11 0 0 0 0 0 
0 0 0 2.50883e-08 0 0 0 2.95286e-11 0 
8.81013e-11 0 0 1.80046e-10 4.98909e-11 0 0 6.83136e-11 8.27894e-11 
0 0 3.31693e-11 0 0 3.5879e-11 0 0 0 
0 4.42834e-11 0 0 2.35738e-11 0 0 0 0 
0 0 0 0 0 0 0 2.85987e-11 0 
0 0 0 0 0 0 0 0 0 
0 0 0 0 0 0 0 0 0 
0 0 0 0 0 0 0 0 5.76926e-12 
0 0 0 0 0 0 0 0 0 
0 0 1.33255e-11 0 0 0 0 0 0 
0 0 0 0 0 0 0 0 0 
0 0 0 0 0 0 0 0 0 
0 0 0 0 0 0 0 0 0 
0 0 0 0 0 0 0 1.78156e-13 0 
0 0 0 0 0 0 0 0 0 
1.3385e-11 0 0 0 0 8.54394e-11 8.61151e-11 0 0 
0 1.68847e-11 0 0 0 0 0 0 0 
0 0 0 0 0 1.44155e-11 0 0 0 
0 0 0 0 0 0 4.32668e-11 0 0 
0 0 0 0 1.30904e-11 0 7.83171e-11 8.77522e-11 0 
0 0 1.06876e-10 7.85378e-11 0 0 0 0 0 
0 0 0 0 2.36265e-13 4.42355e-11 0 0 0 
1.33089e-10 0 0 0 1.43056e-10 0 0 0 0 
3.0215e-11 0 1.79795e-10 0 0 0 0 0 5.77907e-11 
2.9997e-11 0 7.55756e-11 2.47845e-11 0 0 2.45427e-08 0 0 
3.85675e-11 0 0 0 0 1.60745e-11 2.2892e-11 0 0 
0 0 4.44232e-11 0 0 8.32137e-11 7.81736e-11 0 0 
1.04492e-10 8.00727e-11 3.16134e-11 0 0 0 0 0 1.36414e-10 
0 0 0 2.71226e-11 0 1.77144e-10 0 0 0 
1.13067e-10 0 0 0 5.33192e-11 6.63335e-11 0 9.71525e-12 0 
0 0 7.97145e-12 3.20274e-11 0 0 0 0 3.21715e-13 
0 0 0 0 0 3.00275e-11 0 8.87273e-11 0 
0 0 6.02134e-11 0 3.7173e-11 0 0 0 0 
0 0 0 0 0 0 0 0 0 
0 1.2514e-11 0 0 0 0 0 2.08071e-11 0 
0 0 1.27018e-11 9.18509e-11 1.9131e-11 0 0 0 0 
0 5.41687e-11 0 3.44668e-11 3.54063e-11 0 0 0 1.48032e-11 
0 2.34516e-11 0 0 0 0 0 0 0 
0 0 0 0 0 0 0 0 0 
0 0 0 0 0 0 0 0 0 
0 0 0 0 0 0 0 0 0 
0 0 0 0 0 0 0 0 1.4301e-12 
0 0 0 0 0 0 0 0 0 
0 0 0 5.26499e-11 0 0 0 0 0 
0 0 0 4.93728e-11 5.1278e-11 0 0 0 0 
0 2.61644e-08 0 2.40683e-10 0 0 8.56166e-12 0 0 
0 1.29308e-10 0 0 0 0 0 0 0 
3.06854e-11 0 0 0 0 2.73672e-11 6.68157e-11 0 0 
0 0 0 0 7.25743e-12 0 0 0 0 
0 0 0 0 0 0 5.02669e-11 0 0 
0 0 9.61202e-11 0 3.61147e-11 0 0 0 0 
0 0 0 0 0 0 5.02482e-11 8.467e-12 0 
0 1.23508e-10 0 0 0 0 3.67741e-10 0 0 
0 0 0 0 0 0 0 1.90272e-11 0 
0 0 0 0 0 2.24268e-10 0 0 6.0138e-11 
0 0 0 4.23784e-11 4.99286e-11 2.99613e-11 0 0 0 
1.3243e-10 0 0 0 0 0 2.71595e-08 2.69011e-10 0 
0 0 1.2524e-10 0 0 9.39394e-11 0 0 0 
1.40343e-11 0 0 0 0 1.19907e-11 0 0 0 
0 5.37669e-11 1.25906e-10 0 0 0 0 4.01317e-11 6.18961e-11 
0 0 0 0 0 0 0 8.09511e-12 0 
0 0 0 0 6.85268e-12 0 0 0 0 
0 0 0 0 3.3214e-11 0 0 0 0 
2.7042e-12 0 7.1649e-11 0 0 9.85871e-13 0 0 0 
0 0 0 5.52633e-11 0 0 0 0 0 
0 0 5.4398e-12 0 0 6.44624e-13 0 0 0 
0 0 0 0 0 0 0 0 0 
0 0 0 0 0 0 0 0 0 
0 0 0 0 0 0 6.79773e-13 0 0 
0 0 0 0 0 0 0 0 0 
0 0 7.63915e-12 0 0 0 0 4.46546e-11 0 
1.78309e-13 6.58955e-11 0 0 2.46193e-08 0 3.37444e-11 0 0 
3.57043e-11 0 3.17336e-11 0 0 0 0 0 0 
3.66032e-10 0 0 0 0 1.45976e-11 1.47481e-10 0 0 
1.49804e-10 0 0 0 8.81495e-11 9.83529e-12 0 0 0 
7.64912e-12 0 4.28195e-11 1.29449e-11 0 0 3.70743e-11 0 0 
0 0 0 1.97424e-11 0 2.07124e-11 0 2.40085e-11 0 
0 0 0 0 0 2.48731e-10 0 0 0 
0 3.46865e-11 6.98912e-11 1.01888e-10 0 0 1.62365e-10 0 0 
4.27118e-11 0 0 2.68706e-12 0 0 1.02609e-10 9.96573e-11 0 
1.4371e-10 0 1.67941e-10 0 0 0 0 6.1442e-11 0 
0 0 2.36911e-11 0 0 0 0 0 0 
4.75926e-11 0 0 2.43636e-08 1.6183e-10 0 1.0933e-10 0 0 
0 0 0 6.05696e-14 0 1.11184e-10 0 0 0 
6.26857e-13 1.03405e-11 0 0 0 1.84313e-10 0 0 1.99157e-10 
0 0 0 0 0 0 7.65858e-11 0 3.5166e-11 
0 0 0 0 0 0 0 0 1.22754e-10 
0 0 0 6.99488e-11 1.64497e-10 0 0 0 0 
0 0 0 0 0 0 0 5.14483e-12 0 
0 0 0 0 0 0 0 0 5.75893e-12 
0 0 0 0 0 0 1.27989e-10 0 8.88249e-11 
0 0 0 2.48217e-08 0 8.45489e-13 0 0 7.30379e-11 
0 0 4.05757e-11 0 1.8477e-11 0 1.16255e-11 0 0 
0 1.19441e-11 0 0 0 0 0 0 0 
0 0 0 0 0 0 0 0 0 
0 0 0 0 0 0 0 0 0 
0 0 0 0 0 0 0 0 0 
0 0 0 0 0 0 0 0 0 
0 0 0 1.02332e-12 0 0 0 0 2.81337e-12 
0 1.80903e-10 8.8055e-11 1.28353e-10 3.2496e-11 0 0 0 0 
0 0 0 0 0 0 0 0 0 
2.28781e-10 0 0 1.59414e-11 0 1.18963e-10 1.50777e-10 4.84497e-11 0 
0 0 0 0 0 0 0 0 0 
2.98294e-11 0 0 0 0 3.98186e-11 0 7.48613e-11 0 
0 0 0 0 2.16238e-11 0 0 1.76726e-11 0 
6.69305e-11 0 0 0 1.5738e-10 0 4.00639e-11 0 0 
2.9815e-10 0 0 3.04651e-10 0 0 0 0 0 
0 0 0 4.49128e-11 0 6.06835e-11 0 0 2.37932e-10 
0 0 0 0 5.05609e-11 0 0 0 0 
0 0 0 0 0 0 0 0 1.52063e-11 
0 0 0 0 9.76059e-11 0 0 4.87535e-11 0 
7.22981e-11 0 0 3.37922e-11 0 0 0 0 1.08991e-10 
0 0 0 0 1.60645e-10 2.83564e-10 2.69524e-08 0 0 
0 4.77736e-12 0 0 0 7.06455e-11 0 0 0 
0 6.65473e-12 0 0 7.62653e-11 0 1.74107e-10 8.14744e-11 0 
0 0 0 0 0 5.476e-11 0 0 0 
0 0 0 0 0 0 0 0 0 
0 0 0 0 0 0 1.06627e-11 0 0 
0 0 0 3.12305e-11 6.13945e-11 0 0 1.96813e-11 3.40998e-11 
0 0 0 0 0 7.06169e-12 0 6.87239e-11 4.40381e-11 
0 0 0 0 0 7.5299e-12 0 0 0 
0 1.32419e-11 0 0 0 0 0 0 0 
0 0 0 0 0 0 0 0 0 
0 0 0 0 0 0 0 0 0 
0 0 0 0 0 0 0 0 0 
0 0 0 0 0 0 0 0 0 
0 0 0 1.73547e-12 0 0 6.66247e-11 2.07892e-11 0 
1.12776e-10 2.14192e-11 3.01794e-11 0 0 0 5.11832e-12 0 1.98923e-10 
0 0 2.89232e-11 0 0 2.8157e-10 0 0 2.2154e-10 
0 0 0 0 2.66476e-08 0 0 4.43243e-11 0 
4.35813e-11 0 0 0 2.84246e-11 0 0 1.46768e-12 0 
0 0 0 0 0 0 0 0 0 
0 0 8.32849e-13 0 0 6.00947e-11 7.29782e-11 2.57093e-11 0 
0 0 0 0 0 0 0 0 0 
0 0 0 0 0 0 0 0 1.24255e-10 
0 1.80476e-11 1.8876e-10 1.10481e-10 6.53723e-12 0 1.95561e-11 0 0 
0 0 0 0 0 1.5569e-11 0 0 6.14792e-12 
0 0 0 1.00118e-10 0 0 0 0 3.15686e-11 
3.14005e-11 0 1.53027e-10 0 0 6.53217e-12 0 0 0 
0 8.47826e-11 0 0 0 0 0 1.3138e-10 0 
0 0 0 2.40257e-10 0 0 0 0 0 
0 0 0 0 0 5.20851e-11 0 0 0 
0 0 0 3.19357e-11 0 0 0 0 0 
0 0 0 4.976e-11 5.84272e-11 1.0363e-10 8.67861e-11 0 0 
0 0 0 0 0 0 0 0 0 
0 0 0 3.73612e-11 0 0 0 0 0 
0 0 0 3.37035e-11 0 1.34884e-10 5.45844e-11 0 0 
0 1.97958e-10 0 0 0 0 0 0 9.46864e-14 
0 0 0 0 4.04979e-11 0 0 0 0 
0 0 0 0 0 0 0 0 0 
0 0 0 0 0 0 0 0 0 
1.05322e-12 0 0 0 0 0 0 0 0 
0 0 0 0 0 0 0 0 0 
0 0 0 0 0 0 2.63168e-13 0 0 
0 4.45222e-13 5.64079e-11 0 0 5.1836e-11 0 2.57875e-11 1.54795e-11 
0 0 0 0 0 0 0 0 0 
0 1.46205e-10 0 0 0 0 0 0 0 
0 7.02331e-11 2.62305e-10 0 0 1.00279e-10 0 0 0 
4.38021e-11 0 0 1.35235e-11 0 0 1.22643e-12 0 1.83614e-11 
0 0 0 0 0 0 3.57926e-11 0 0 
0 0 0 7.73381e-11 6.88146e-11 0 0 0 0 
1.75378e-10 0 0 3.0076e-08 0 0 0 3.45511e-08 0 
0 0 0 1.63076e-10 0 1.09242e-10 0 7.13015e-11 1.83691e-10 
1.83697e-11 2.14173e-11 8.60017e-11 0 0 0 0 6.66434e-11 0 
5.30491e-11 0 0 0 0 0 1.50679e-11 0 0 
0 0 0 0 0 0 0 0 0 
2.50644e-11 0 0 0 0 0 0 0 0 
0 0 0 1.5647e-11 0 0 0 6.32956e-11 0 
8.47027e-11 0 0 0 0 0 0 8.86074e-11 3.35514e-11 
0 0 0 0 0 0 1.60403e-10 0 0 
0 0 0 0 0 0 0 0 0 
0 0 0 0 0 7.56432e-11 6.68073e-11 0 0 
0 0 0 0 0 0 0 0 0 
0 3.99321e-11 0 6.10773e-11 0 0 0 0 0 
0 0 9.90762e-11 0 0 0 0 0 0 
0 0 5.22494e-11 6.49679e-11 2.72565e-11 1.01761e-10 0 5.5145e-11 1.44906e-10 
0 0 0 0 0 0 0 0 0 
0 0 0 0 0 0 0 0 0 
0 0 0 0 0 0 0 0 0 
0 0 0 0 0 0 0 0 0 
0 0 0 0 0 0 0 0 0 
0 0 0 0 0 0 0 0 0 
0 4.17577e-11 0 9.22973e-11 0 6.18543e-11 0 0 0 
0 0 0 1.20403e-10 4.30826e-11 4.44621e-11 2.16234e-11 1.00596e-10 0 
0 0 0 0 0 0 0 0 0 
0 0 0 0 0 7.49978e-12 0 0 0 
0 0 0 0 0 0 1.08067e-10 0 0 
0 0 8.08595e-11 0 0 0 8.67563e-12 0 0 
0 0 0 0 0 8.32729e-11 0 1.82907e-10 0 
0 0 2.60123e-10 0 0 0 0 0 0 
0 0 0 0 2.61416e-08 0 0 0 0 
0 0 0 0 0 0 0 0 0 
0 0 0 0 0 0 0 0 1.45217e-11 
0 0 0 0 1.84991e-11 0 0 0 6.30227e-11 
0 3.422e-12 0 0 1.42707e-10 0 0 0 0 
5.9719e-11 0 0 0 0 0 1.13553e-10 0 8.10683e-11 
6.56966e-11 9.91128e-11 0 0 0 0 1.20341e-10 0 0 
1.08655e-10 2.48449e-08 0 0 0 0 4.26849e-11 0 0 
0 1.93929e-10 0 0 0 0 2.81912e-08 0 0 
7.40432e-11 0 0 0 0 0 0 0 0 
0 0 0 0 0 0 0 0 0 
0 4.92599e-11 0 0 0 1.02203e-10 5.9732e-11 0 0 
1.36041e-11 0 0 0 0 0 0 0 0 
0 0 0 0 0 0 0 0 7.38677e-11 
4.06273e-11 0 0 0 0 0 0 0 0 
0 0 0 0 0 0 0 0 0 
0 0 0 0 0 0 0 0 0 
0 0 0 0 0 0 0 0 0 
0 0 0 0 0 0 0 0 0 
0 0 0 0 0 0 2.6524e-11 0 0 
0 6.00978e-11 0 0 0 0 0 1.02241e-10 0 
4.05729e-10 0 0 0 3.24273e-11 7.83968e-11 0 0 0 
8.25224e-13 3.83179e-08 3.85183e-08 0 0 0 3.24405e-11 0 0 
0 0 7.04361e-11 1.07615e-11 0 0 0 0 0 
0 0 0 0 0 4.38783e-11 0 0 0 
0 0 2.50785e-11 0 0 0 0 0 0 
0 1.93588e-11 0 0 0 0 0 0 0 
0 0 0 0 3.31182e-08 0 0 2.20081e-10 0 
2.72526e-10 0 2.80527e-10 0 0 1.15935e-11 0 0 7.06379e-12 
0 0 0 0 0 4.83209e-11 0 0 0 
0 0 0 0 0 0 0 0 0 
0 8.69355e-11 0 0 0 0 0 0 0 
0 7.06772e-12 0 0 0 0 0 0 0 
0 0 0 1.16273e-10 0 0 0 1.62778e-10 0 
0 1.14791e-11 0 0 0 0 0 0 0 
0 7.52493e-11 4.52732e-12 0 1.0421e-10 5.70742e-11 0 2.2015e-10 0 
0 0 0 0 1.01055e-10 0 0 0 2.59039e-11 
0 0 0 0 0 0 0 0 0 
0 0 0 0 1.27058e-11 2.50937e-11 0 0 2.01812e-11 
0 0 0 0 2.6282e-10 0 0 1.41997e-10 0 
4.8257e-11 1.28353e-10 0 0 0 1.146e-10 2.33909e-10 0 0 
0 0 0 0 0 0 0 0 1.58175e-11 
0 0 0 0 1.0696e-11 6.54484e-12 0 0 0 
0 0 0 0 0 0 0 0 0 
0 0 0 0 0 0 0 0 0 
0 0 0 0 0 0 0 0 0 
0 0 0 0 0 0 0 0 0 
0 0 0 0 2.06987e-11 0 0 0 0 
0 0 6.5509e-11 0 0 0 0 0 0 
0 9.1874e-12 0 0 5.25962e-11 0 8.74776e-11 0 0 
0 0 2.333e-10 2.4008e-10 0 9.1142e-11 1.10787e-10 0 0 
0 0 3.02991e-11 0 0 0 0 0 0 
6.65855e-13 0 0 8.78186e-11 0 1.15626e-10 0 0 0 
0 0 0 0 0 0 0 0 0 
0 0 0 0 0 0 1.0331e-11 0 1.9915e-11 
0 4.96464e-10 0 0 0 5.95296e-11 0 2.28108e-11 0 
5.56321e-11 0 0 0 0 0 7.81877e-11 0 0 
0 9.48316e-11 0 0 5.62481e-11 0 0 4.36171e-11 0 
0 0 0 0 0 2.8197e-11 0 0 0 
0 0 0 0 1.47563e-12 0 0 0 0 
0 0 0 0 0 0 0 0 0 
0 3.83509e-11 5.10114e-11 0 0 0 0 0 0 
4.01411e-11 0 0 8.8559e-11 0 0 0 0 0 
0 0 0 0 0 2.65717e-11 0 0 0 
6.02453e-11 0 0 2.28611e-10 0 0 0 4.00021e-11 0 
3.54923e-12 0 0 0 0 0 0 0 0 
0 0 0 0 0 0 0 0 0 
1.98037e-10 1.75762e-10 2.66762e-08 0 0 2.00921e-10 0 0 0 
0 0 5.05848e-11 0 0 2.60803e-11 0 0 0 
0 0 0 1.77083e-11 0 0 0 0 0 
0 0 0 0 0 0 0 0 0 
0 0 0 0 0 0 0 0 0 
0 0 0 0 0 0 0 0 0 
0 0 0 0 0 0 0 0 0 
0 0 0 0 0 0 0 0 0 
0 0 0 0 0 0 0 5.75664e-11 0 
0 2.52099e-11 0 0 0 2.66712e-08 0 3.98895e-10 1.13574e-10 
0 0 0 0 2.90531e-10 3.03893e-10 0 0 0 
5.50891e-11 2.01424e-10 0 0 1.21249e-10 0 0 0 0 
0 0 0 0 0 0 0 0 0 
0 0 0 3.49113e-11 1.07062e-10 1.0311e-10 0 3.08342e-10 0 
0 1.86785e-11 0 0 0 0 6.22673e-11 0 0 
0 0 0 1.08752e-10 2.31454e-11 0 3.60933e-11 0 0 
0 0 4.68e-11 0 1.02227e-10 8.50468e-12 1.3346e-11 0 7.08542e-13 
9.25508e-11 0 7.47825e-12 1.6088e-11 0 0 0 6.24356e-11 0 
0 0 0 0 0 0 0 0 0 
0 0 0 0 2.82423e-11 0 4.23046e-11 0 0 
0 0 0 0 0 0 0 0 0 
0 0 0 0 0 0 4.57262e-11 0 0 
0 0 1.27456e-10 0 0 0 0 3.75896e-12 0 
0 0 0 0 0 5.55973e-11 0 0 1.49031e-11 
0 0 0 0 0 0 0 0 1.99978e-10 
2.87057e-10 0 0 0 1.03387e-10 0 0 2.89468e-11 0 
2.01568e-11 0 0 0 0 0 0 0 0 
0 0 0 0 0 0 0 0 0 
1.14985e-10 8.48895e-11 7.12373e-11 0 0 0 0 0 0 
0 2.61811e-12 0 2.936e-11 5.05961e-11 1.17532e-10 0 3.0941e-08 0 
0 0 0 0 0 0 0 0 0 
0 0 0 0 0 0 0 0 0 
0 0 0 0 0 0 0 0 0 
0 0 0 0 0 0 0 0 0 
0 0 0 0 0 0 0 0 0 
0 0 0 0 0 0 0 0 0 
0 0 0 0 0 0 0 2.48501e-10 4.23711e-11 
0 0 0 0 2.91266e-10 1.58732e-10 0 8.87066e-12 9.77189e-11 
0 3.90368e-11 0 1.97748e-10 0 0 0 0 0 
3.31087e-11 0 0 0 0 0 0 0 0 
0 0 0 0 0 0 0 1.39352e-10 0 
0 1.31714e-10 0 0 0 0 6.12851e-11 0 3.35524e-11 
1.19682e-11 0 0 5.84879e-11 1.38736e-11 3.64584e-11 0 0 0 
0 9.76904e-12 0 0 0 5.1999e-11 2.20558e-10 3.00331e-11 0 
0 0 0 2.91416e-11 0 0 0 1.97296e-11 0 
0 0 0 0 0 0 0 0 0 
0 5.52936e-11 1.39063e-10 0 0 0 0 0 1.63681e-11 
2.21647e-11 0 6.0614e-11 0 0 0 0 0 0 
1.28152e-10 0 0 1.11089e-12 0 0 0 0 9.54514e-11 
0 0 0 0 0 0 0 0 0 
0 0 0 0 0 0 4.1303e-11 8.24665e-11 0 
1.87004e-11 1.07441e-10 0 0 0 0 0 0 0 
9.89157e-11 0 0 0 0 0 0 0 0 
0 2.63594e-08 0 0 0 0 0 5.0417e-11 0 
0 0 0 1.3696e-13 0 0 0 0 0 
2.35016e-11 0 0 0 1.22671e-10 0 0 0 3.27672e-10 
5.43107e-14 0 0 1.48698e-10 0 0 0 0 0 