# vtk DataFile Version 5.1
vtk output
ASCII
DATASET STRUCTURED_POINTS
DIMENSIONS 250 250 1
SPACING 1 1 1
ORIGIN 0 0 0
POINT_DATA 62500
FIELD FieldData 6
feature_1 1 62500 float
0 0 0 0 0 0 0 0 0 
0 0 0 0 0 0 0 0 0 
0 0 0 0 0 0 0 0 0 
0 0 0 0 0 0 0 0 0 
0 0 0 0 0 0 0 0 0 
0 0 0 0 0 0 0 0 0 
0 0 0 0 0 0 0 0 0 
0 0 0 0 0 0 0 0 0 
0 0 0 0 0 0 0 0 0 
0 0 0 0 0 0 0 0 0 
0 0 0 0 0 0 0 0 0 
0 0 0 0 0 0 0 0 0 
0 0 0 0 0 0 0 0 0 
0 0 0 0 0 0 0 0 0 
0 0 0 0 0 0 0 0 0 
0 0 0 0 0 0 0 0 0 
0 0 0 0 0 0 0 0 0 
0 0 0 0 0 0 0 0 0 
0 0 0 0 0 0 0 0 0 
0 0 0 0 0 0 0 0 0 
0 0 0 0 0 0 7.19095e-13 0 0 
0 0 0 0 0 0 0 0 0 
0 0 0 0 0 0 0 0 0 
0 0 0 0 0 0 0 0 0 
0 0 0 0 0 0 0 0 0 
0 0 0 0 0 0 0 0 0 
0 0 0 0 0 0 0 0 0 
0 0 0 0 0 0 0 0 0 
0 0 0 6.59374e-13 0 0 0 0 0 
0 0 0 0 0 0 0 0 0 
0 0 0 0 0 0 0 0 0 
0 0 0 0 0 0 0 0 0 
0 0 0 0 0 0 0 0 0 
0 0 0 0 0 0 0 0 0 
0 0 0 0 0 0 0 0 0 
0 0 0 0 0 0 0 0 0 
0 0 0 0 0 0 0 0 0 
0 0 0 0 0 0 0 0 0 
0 0 0 0 0 0 0 0 0 
0 0 0 0 0 0 0 0 0 
0 0 0 0 0 0 0 0 0 
0 0 0 0 0 0 0 0 0 
0 0 0 0 0 0 0 0 0 
0 0 0 0 0 0 0 0 0 
0 0 0 0 0 0 0 0 0 
0 0 0 0 0 0 0 0 0 
0 0 0 0 0 0 0 0 0 
0 0 0 0 0 0 0 0 0 
0 0 0 0 0 0 0 0 0 
0 0 0 0 0 0 0 0 0 
0 0 0 0 0 0 0 0 0 
0 0 0 0 0 0 0 0 0 
0 0 0 0 0 0 0 0 0 
0 0 0 0 0 0 0 0 0 
0 0 0 0 0 0 0 0 0 
0 0 0 0 0 0 0 0 0 
0 0 0 0 0 0 0 0 0 
0 0 0 0 0 0 0 0 0 
0 0 0 0 0 0 0 0 0 
0 0 0 0 0 0 0 0 0 
0 0 0 0 0 0 0 0 0 
0 0 0 0 0 0 0 0 0 
0 0 0 0 0 0 0 0 0 
0 0 0 0 0 0 0 0 0 
0 0 0 0 0 0 0 0 0 
0 0 0 0 0 0 0 0 0 
0 0 0 0 0 0 0 0 0 
0 0 0 0 0 0 0 0 0 
0 0 0 0 0 0 0 0 0 
0 0 0 0 0 0 0 0 0 
0 0 0 0 0 0 0 0 0 
0 0 0 0 0 0 0 0 0 
0 0 0 0 0 0 0 0 0 
0 0 0 0 0 0 0 0 0 
0 0 0 0 0 0 0 0 0 
0 0 0 0 0 0 0 0 0 
0 0 0 0 0 0 0 0 0 
0 0 0 0 0 0 0 0 0 
0 0 0 0 0 0 0 0 0 
0 0 0 0 0 0 0 0 0 
0 0 0 0 0 0 0 0 0 
0 0 0 0 0 0 0 0 0 
0 0 0 0 0 0 0 0 0 
0 0 0 0 0 0 0 0 0 
0 0 0 0 0 0 0 0 0 
0 0 0 0 0 0 0 0 0 
0 0 0 0 0 0 0 0 0 
0 0 0 0 0 0 0 0 0 
0 0 0 0 0 0 0 0 0 
0 0 0 0 0 0 0 0 0 
0 0 0 0 0 0 0 0 0 
0 0 0 0 0 0 3.66429e-13 0 0 
0 0 0 0 0 0 0 0 0 
0 0 0 0 0 0 0 0 0 
0 0 0 0 0 0 0 0 0 
0 0 0 0 0 0 0 0 0 
0 0 0 0 0 0 0 0 2.26318e-12 
0 0 0 0 0 0 0 0 0 
0 0 0 0 0 0 0 0 0 
0 0 0 0 0 0 0 0 0 
5.50541e-13 0 0 0 0 0 0 0 0 
0 0 0 0 0 0 0 0 0 
0 0 0 0 0 0 0 0 0 
0 0 0 0 0 0 0 0 0 
0 0 0 0 0 0 0 0 0 
0 0 0 0 0 0 0 0 0 
0 0 0 0 0 0 0 0 9.76949e-14 
0 0 0 0 0 0 0 0 0 
0 0 0 0 0 0 0 0 0 
0 0 0 0 0 0 0 0 0 
0 0 0 0 0 0 0 0 0 
0 0 0 0 0 0 0 0 0 
0 0 0 0 0 0 0 0 0 
0 0 0 0 0 0 0 0 0 
0 0 0 0 0 0 0 0 0 
0 0 0 0 0 0 0 0 0 
0 0 0 0 0 0 0 0 0 
0 0 0 0 0 0 0 0 0 
0 0 0 0 0 0 0 0 0 
0 0 0 0 3.05906e-13 0 0 0 0 
0 0 0 0 0 0 0 0 0 
0 0 0 0 0 0 0 0 0 
0 0 0 0 0 0 0 0 0 
0 1.48872e-12 0 0 0 0 0 0 0 
0 0 0 0 0 0 0 0 0 
0 0 0 0 0 0 0 0 0 
0 0 0 0 0 0 0 0 0 
0 0 0 0 0 0 0 0 0 
0 0 0 0 0 0 0 0 0 
0 0 0 0 0 0 0 0 0 
0 0 0 0 0 0 0 0 0 
0 0 0 0 0 0 0 0 0 
0 0 0 0 0 0 0 0 0 
0 0 0 0 0 0 0 0 0 
0 0 0 0 0 0 0 0 0 
0 0 0 0 0 0 0 0 0 
0 0 0 0 0 0 0 0 0 
0 0 0 0 0 0 0 0 0 
0 0 0 0 0 0 0 0 0 
0 0 0 0 0 0 0 0 0 
0 0 0 0 0 0 0 0 0 
0 0 0 0 0 0 0 0 0 
0 0 0 0 0 0 0 0 0 
0 0 0 0 0 0 0 0 0 
0 0 0 0 0 0 0 0 0 
0 0 0 0 0 0 0 0 0 
0 0 0 0 0 0 0 0 0 
0 0 0 0 0 0 0 0 0 
0 0 0 0 0 0 0 0 0 
0 0 0 0 0 0 0 0 0 
0 0 0 0 0 0 0 0 0 
0 0 0 0 0 0 0 0 0 
0 0 0 0 0 1.46901e-12 0 0 0 
0 0 0 0 0 0 0 0 0 
0 0 0 0 0 0 0 0 0 
0 0 0 0 0 0 0 0 0 
0 0 0 0 0 0 0 0 0 
0 0 0 0 0 0 0 0 0 
0 0 0 0 0 0 0 0 0 
0 0 0 0 0 0 0 0 0 
0 0 0 0 0 0 0 0 0 
0 0 0 0 0 0 0 0 0 
0 0 0 0 0 0 0 0 0 
0 0 0 0 0 0 0 2.07856e-13 0 
0 0 0 0 0 0 0 0 0 
0 0 0 0 0 0 0 0 0 
0 0 0 0 0 0 0 0 0 
0 0 0 0 0 0 0 0 0 
0 0 0 0 0 0 0 2.08607e-12 8.02583e-14 
0 0 0 0 0 0 0 0 0 
0 0 0 0 0 0 0 0 0 
0 0 0 0 0 0 0 0 0 
0 0 0 0 0 0 0 0 0 
0 0 0 0 0 0 0 0 0 
0 0 0 0 0 0 0 0 0 
0 0 0 0 0 0 0 0 0 
0 0 0 0 0 0 0 0 0 
0 0 0 0 0 0 0 0 0 
0 0 0 0 0 0 0 0 0 
0 0 0 0 0 0 0 0 0 
0 0 0 0 0 0 0 0 0 
0 0 0 0 0 0 0 0 0 
0 0 0 0 0 0 0 0 0 
0 0 0 0 0 0 0 0 0 
0 0 0 0 0 0 0 0 0 
0 0 0 0 0 0 0 0 0 
0 0 0 0 0 0 0 0 0 
0 0 0 0 0 0 0 0 0 
0 0 0 0 0 0 0 0 0 
0 0 0 0 0 0 0 0 0 
0 0 0 0 0 0 0 0 0 
0 0 0 0 0 0 2.01261e-12 0 0 
0 0 0 0 0 0 0 0 0 
0 0 0 0 0 0 0 0 0 
0 0 0 0 0 0 0 0 0 
0 0 0 0 0 0 0 0 0 
0 0 0 0 0 0 0 0 0 
0 0 0 0 0 0 0 0 0 
0 0 0 0 0 0 0 0 0 
0 0 0 0 0 0 0 0 0 
0 0 0 0 0 0 0 0 0 
0 0 0 0 0 0 0 0 0 
0 0 0 0 0 0 0 0 0 
0 0 0 0 0 0 0 0 0 
0 0 0 0 0 0 0 0 0 
0 0 0 0 0 0 0 0 0 
0 0 0 0 0 0 0 0 0 
0 0 0 0 0 0 0 0 0 
0 0 0 0 0 0 0 0 0 
0 0 0 0 0 0 0 0 0 
0 0 0 0 0 0 0 0 0 
0 0 0 0 0 0 0 0 0 
0 0 0 0 0 0 0 0 0 
0 0 0 0 0 0 0 0 0 
0 0 0 0 0 0 0 0 0 
0 0 0 0 0 0 0 0 0 
0 0 0 0 0 0 0 0 0 
0 0 0 0 0 0 0 0 0 
0 0 0 0 0 0 0 0 0 
0 0 0 0 0 0 0 0 0 
0 0 0 2.46942e-12 0 0 0 0 0 
0 0 0 0 0 0 0 0 0 
0 0 0 0 0 0 0 0 0 
0 0 0 0 0 0 0 0 0 
0 0 0 0 0 0 0 0 0 
0 0 0 0 8.56233e-13 0 0 0 0 
0 0 0 0 0 0 0 2.58741e-12 0 
0 0 0 0 0 0 0 0 0 
0 0 0 0 0 0 0 0 0 
0 0 0 0 0 0 0 0 0 
0 0 0 0 0 0 0 0 0 
0 0 0 0 0 0 0 0 0 
0 0 0 0 0 0 0 0 0 
0 0 0 0 0 0 0 0 0 
0 0 0 0 0 0 0 0 0 
0 0 0 0 0 0 0 0 0 
0 0 0 0 0 0 0 0 0 
0 0 0 0 0 0 0 0 0 
0 0 0 0 0 0 0 0 0 
0 0 0 0 0 0 0 0 0 
0 0 0 0 0 0 0 0 0 
0 0 0 0 0 0 0 0 0 
0 0 0 0 0 0 0 0 0 
0 0 0 0 0 0 0 0 0 
0 0 0 0 0 0 0 0 0 
0 0 0 0 0 0 0 0 0 
0 0 0 0 0 0 0 0 0 
0 0 0 0 0 0 0 1.6523e-12 0 
0 0 0 0 0 0 0 0 0 
0 0 0 0 0 0 0 0 0 
0 0 0 0 0 0 0 0 0 
0 0 0 0 0 0 0 0 0 
0 0 0 0 0 0 0 0 0 
0 0 0 0 0 0 0 0 0 
0 0 0 0 0 0 0 0 0 
0 0 0 0 0 0 0 0 0 
0 0 0 0 0 0 0 0 0 
0 0 0 0 0 0 0 0 0 
0 0 0 0 0 0 0 0 0 
0 0 0 0 0 0 0 0 0 
0 0 0 0 0 0 0 0 0 
0 0 0 0 0 0 0 0 0 
0 0 0 0 0 0 0 0 0 
0 0 0 0 0 1.12562e-12 0 0 0 
0 0 0 0 0 0 0 0 0 
0 0 0 0 0 0 0 0 0 
0 0 0 0 0 0 0 0 0 
0 0 0 0 0 0 0 0 0 
0 0 0 0 0 0 0 0 0 
0 0 0 0 0 0 0 0 0 
0 0 0 0 0 0 0 0 0 
0 0 0 0 0 0 0 0 0 
0 0 0 0 0 0 0 0 0 
0 0 0 0 0 0 0 0 0 
0 0 0 0 0 0 0 0 0 
0 0 0 0 0 0 0 0 0 
0 0 0 0 0 0 0 0 0 
0 0 0 0 0 0 0 0 0 
0 0 0 0 0 0 0 0 0 
0 0 0 0 0 0 0 0 0 
0 0 0 0 0 0 0 0 0 
0 0 0 0 0 0 0 0 0 
0 0 0 0 0 0 0 0 0 
0 0 0 0 0 0 0 0 0 
0 0 0 0 0 0 0 0 0 
0 0 0 0 0 0 0 0 0 
0 0 0 0 0 0 0 0 0 
0 0 0 0 0 0 0 0 0 
0 0 0 0 0 0 0 0 0 
0 0 0 0 0 0 0 0 0 
0 0 0 0 0 0 0 0 0 
0 0 0 0 0 0 0 0 0 
0 0 0 0 0 0 0 0 0 
0 1.67197e-13 0 0 0 0 0 0 0 
0 0 0 0 0 0 0 0 0 
0 0 0 0 0 0 0 0 0 
0 0 0 0 0 0 0 0 0 
0 0 0 0 0 0 0 0 0 
0 0 0 0 0 0 0 0 0 
0 0 0 0 0 0 0 0 0 
0 0 0 0 0 0 0 0 0 
0 0 0 0 0 0 0 0 0 
0 0 0 0 0 0 0 0 0 
0 0 0 0 0 0 0 0 0 
0 0 0 0 0 0 0 0 0 
0 0 0 0 0 0 0 0 0 
0 0 0 0 0 0 0 0 0 
0 0 0 0 0 0 0 0 0 
0 0 0 0 0 0 0 0 0 
0 0 0 0 0 0 0 0 0 
0 0 0 0 0 0 0 0 0 
0 0 0 0 0 0 0 0 0 
0 0 0 0 0 0 0 0 0 
0 0 0 0 0 0 0 0 0 
0 0 0 0 0 0 0 0 0 
0 0 0 0 0 0 0 0 0 
0 0 0 0 0 0 0 0 0 
0 0 0 0 0 0 0 0 0 
0 0 0 0 0 0 0 0 0 
0 0 0 0 0 0 0 0 0 
0 0 0 1.76743e-12 0 0 0 0 0 
0 0 0 0 0 0 0 0 0 
0 0 0 0 0 0 0 0 0 
0 0 0 0 0 0 0 0 0 
0 0 0 0 0 0 0 0 0 
0 0 0 0 0 0 0 0 0 
0 0 0 0 0 0 0 0 0 
0 0 0 0 0 0 0 0 0 
0 0 0 0 0 0 0 1.28271e-12 0 
0 0 0 0 0 0 0 0 0 
0 0 0 0 0 0 0 0 0 
0 0 0 0 0 0 0 0 0 
0 0 0 0 0 0 0 0 0 
0 0 0 0 0 0 0 0 0 
0 0 0 0 0 0 0 0 0 
0 0 0 0 0 0 0 0 0 
0 0 0 2.43323e-12 0 0 0 0 0 
0 0 0 0 0 0 0 0 0 
0 0 0 0 0 0 0 0 0 
0 0 0 0 0 0 0 0 0 
0 0 0 0 0 0 0 0 0 
0 0 0 0 0 0 0 0 0 
0 0 0 0 0 0 0 0 0 
0 8.68262e-13 0 0 0 0 0 0 0 
0 0 0 0 0 0 0 0 0 
0 0 0 0 0 0 0 0 0 
0 0 0 0 0 0 0 0 0 
0 0 0 0 0 0 0 0 0 
0 0 0 0 0 0 0 0 0 
0 0 0 0 0 0 0 0 0 
0 0 0 0 0 0 0 0 0 
0 0 0 0 0 0 0 0 0 
0 0 0 0 0 0 0 0 0 
0 0 0 0 0 0 0 0 0 
0 0 0 0 0 0 0 0 0 
0 0 0 0 0 0 0 0 0 
0 0 0 0 0 0 0 0 0 
0 0 0 0 0 0 0 0 0 
0 0 0 0 0 0 0 0 0 
0 0 0 0 0 0 0 0 0 
0 0 0 0 0 0 0 0 0 
0 0 0 0 0 0 0 0 0 
0 0 0 0 0 0 0 0 0 
0 0 0 0 0 0 0 0 0 
0 0 0 0 0 0 0 0 0 
0 0 0 0 0 0 0 0 0 
0 0 0 0 0 0 0 0 0 
0 0 0 0 0 0 0 0 0 
0 0 0 0 0 0 0 0 0 
0 0 0 0 0 0 0 0 0 
0 0 0 0 0 0 0 0 0 
0 0 0 0 0 0 0 0 0 
0 0 0 0 0 0 0 0 1.92043e-14 
0 0 0 0 0 0 0 0 0 
0 0 0 0 0 0 0 0 0 
0 0 0 0 0 0 0 0 1.43561e-12 
0 0 0 0 0 0 0 0 0 
0 0 0 0 0 0 0 0 0 
0 0 0 0 0 0 0 0 0 
0 0 0 0 0 0 0 0 0 
0 0 0 0 0 0 0 0 0 
0 0 0 0 0 0 0 0 0 
0 0 0 0 0 0 0 0 0 
0 0 0 0 0 0 0 0 0 
0 0 0 0 0 0 0 0 0 
0 0 0 0 0 0 0 0 0 
0 0 0 0 0 0 0 0 0 
0 0 0 0 0 0 0 0 0 
0 0 0 0 0 0 0 0 0 
0 6.07127e-13 0 0 0 0 0 0 0 
0 0 0 0 0 0 0 0 0 
0 0 0 0 0 0 0 0 0 
0 0 0 0 0 0 0 0 0 
0 0 0 0 0 0 0 0 0 
0 0 0 0 0 0 0 0 0 
0 0 2.39107e-12 0 0 0 0 0 0 
0 0 0 0 0 0 0 0 0 
0 0 0 0 0 0 0 0 0 
0 0 0 0 0 0 0 0 0 
0 0 0 0 0 0 0 0 0 
0 0 0 0 0 0 0 0 0 
0 0 0 0 0 0 0 0 0 
0 0 0 0 0 0 0 0 0 
0 0 0 0 0 0 0 0 0 
0 0 0 0 0 0 0 0 0 
0 0 0 0 0 0 0 0 0 
0 0 0 0 0 0 0 0 0 
0 0 0 0 0 0 0 0 0 
0 5.14264e-13 0 0 0 0 0 0 0 
0 0 0 0 0 0 0 0 0 
0 0 0 0 0 0 0 0 0 
0 0 0 0 0 0 0 0 0 
0 0 0 0 0 0 0 0 0 
0 0 0 0 0 0 0 0 0 
0 0 0 0 0 0 0 0 0 
0 0 0 0 0 0 0 0 0 
0 0 0 0 0 0 3.46765e-12 0 0 
0 0 0 1.17247e-12 0 0 0 0 0 
0 0 0 0 0 0 0 0 0 
0 0 0 0 0 0 1.4161e-12 0 0 
0 0 0 0 0 0 0 0 0 
0 0 0 0 0 0 0 0 0 
0 0 0 0 0 0 0 0 0 
0 0 0 0 0 0 0 0 0 
0 0 0 0 0 0 0 0 0 
0 0 0 0 0 0 0 0 0 
0 0 0 0 0 0 0 0 0 
0 0 0 0 0 0 0 0 0 
0 0 0 0 0 0 0 0 0 
0 0 0 0 0 0 0 0 0 
0 0 0 0 0 0 0 0 0 
0 0 0 0 0 0 0 0 0 
0 0 0 0 0 0 0 0 0 
0 0 0 0 0 0 0 0 0 
0 0 0 0 0 0 0 0 0 
0 0 0 0 0 0 0 0 0 
0 0 0 0 0 0 0 0 0 
0 0 0 0 0 0 0 0 0 
0 0 0 0 0 0 0 0 0 
0 0 0 0 0 0 0 0 0 
0 0 0 0 0 0 0 0 0 
0 0 0 0 0 0 0 0 0 
0 0 0 0 0 0 0 0 0 
0 0 0 0 0 0 0 0 0 
0 0 0 0 0 0 0 0 0 
0 0 0 0 0 0 0 0 0 
0 0 0 0 0 0 0 0 0 
0 0 0 0 0 0 0 0 0 
0 0 0 0 0 0 0 0 0 
0 0 0 0 0 0 0 0 0 
0 0 0 0 0 0 0 0 0 
0 0 0 0 0 0 0 0 0 
0 0 0 0 0 0 0 0 0 
0 0 0 0 0 0 0 0 0 
0 0 0 0 0 0 0 0 0 
0 0 0 0 0 0 0 0 0 
0 0 0 0 0 0 0 0 0 
0 0 0 0 0 0 0 0 0 
0 0 0 0 0 0 0 0 0 
0 0 0 0 0 0 0 0 0 
0 0 0 0 3.47787e-13 0 0 0 0 
0 0 0 0 0 0 0 0 0 
0 0 0 0 0 0 0 0 0 
0 0 0 0 0 0 0 0 0 
0 0 0 0 0 0 3.94594e-12 0 0 
0 0 0 0 0 0 0 0 0 
0 0 0 0 0 0 0 0 0 
0 0 0 0 0 0 0 0 0 
0 0 0 0 0 0 0 0 0 
0 0 0 0 0 0 0 0 0 
0 0 0 0 0 0 0 0 0 
0 0 0 0 0 0 0 0 0 
0 0 0 0 0 0 0 0 0 
0 0 0 0 0 0 0 0 0 
0 0 0 0 0 0 0 0 0 
0 0 0 0 0 0 0 0 0 
0 0 0 0 0 0 0 0 0 
0 0 0 0 0 0 0 0 0 
0 0 0 0 0 0 0 0 0 
0 0 0 0 0 0 0 0 9.00906e-13 
0 0 0 0 0 0 0 0 0 
0 0 0 0 0 0 0 0 0 
0 0 0 0 0 0 0 0 0 
0 0 1.26784e-12 0 0 0 0 0 0 
0 0 0 0 0 0 0 0 0 
0 0 0 0 0 0 0 0 0 
0 0 0 0 0 0 0 0 0 
0 0 0 0 0 0 0 0 0 
0 0 0 0 0 0 0 0 0 
0 0 0 0 0 0 0 0 0 
0 0 0 0 0 0 0 0 0 
0 0 0 0 0 0 0 0 0 
0 0 0 0 0 0 0 0 0 
0 0 0 0 0 0 0 0 1.98214e-12 
0 0 0 0 0 0 0 0 0 
0 0 0 0 0 1.02644e-11 0 0 0 
0 0 0 0 0 0 0 0 0 
0 0 0 0 0 0 0 0 0 
0 0 0 0 0 0 0 0 0 
0 0 0 0 0 0 0 0 0 
0 0 0 0 0 0 0 0 0 
0 0 0 0 0 0 0 0 0 
0 0 0 0 0 0 0 0 0 
0 0 0 0 0 0 0 0 0 
0 0 0 0 0 0 0 0 0 
0 0 0 0 0 0 0 0 0 
0 0 0 0 0 0 0 0 0 
0 0 0 0 0 0 0 2.23014e-12 0 
0 0 0 0 0 0 0 0 0 
0 0 0 0 0 0 0 0 0 
0 0 0 3.60489e-12 0 0 0 0 0 
0 0 0 0 0 0 0 0 0 
0 0 0 0 0 0 0 0 0 
0 0 0 0 0 0 0 0 0 
0 0 0 0 0 0 0 0 0 
0 0 2.68623e-12 0 0 0 0 0 0 
0 0 0 0 0 0 0 0 0 
0 0 0 0 0 0 0 0 0 
0 0 0 0 0 0 0 0 0 
0 0 0 0 0 0 0 0 0 
0 0 0 0 0 0 0 0 0 
0 0 0 0 0 0 0 0 0 
0 0 0 0 0 0 0 0 0 
0 0 0 0 0 0 0 0 0 
0 0 0 0 0 0 0 0 0 
0 0 0 0 0 0 0 0 0 
0 0 0 0 0 0 0 0 0 
0 0 0 0 0 0 0 0 0 
0 0 0 0 0 0 0 0 0 
0 0 0 0 0 0 0 0 0 
0 0 0 0 0 0 0 0 0 
0 0 0 0 0 0 0 0 0 
0 0 0 0 0 0 0 0 0 
0 0 0 0 0 0 0 0 0 
0 0 0 0 0 1.06861e-11 0 0 0 
0 0 0 0 0 0 0 0 0 
0 0 0 0 0 0 0 0 0 
0 0 0 0 0 0 0 0 0 
0 0 0 0 0 0 0 0 0 
2.32133e-13 0 0 0 0 0 0 0 0 
0 0 0 0 0 0 0 7.80632e-12 0 
0 0 0 0 0 0 0 0 0 
0 0 0 0 0 0 0 0 0 
0 0 0 0 0 0 0 0 0 
0 0 0 0 0 4.65997e-12 0 0 0 
0 0 0 0 0 0 0 0 0 
0 0 0 0 0 0 0 0 0 
0 0 0 0 0 0 0 0 0 
0 0 0 0 0 0 0 0 0 
0 0 0 0 0 0 0 0 0 
0 0 0 0 0 0 0 0 0 
0 0 0 0 0 0 0 0 0 
0 0 0 0 0 0 0 0 0 
0 0 0 0 0 0 0 0 0 
0 0 0 0 0 0 0 0 0 
0 0 0 0 0 0 0 0 0 
0 0 0 0 0 0 0 0 0 
2.09565e-13 0 0 0 0 0 0 0 0 
0 1.80427e-12 0 0 0 0 0 0 0 
0 0 0 0 0 0 0 0 0 
0 0 0 0 0 0 0 0 0 
0 0 0 0 0 0 0 0 0 
0 0 0 0 2.77631e-12 0 0 0 0 
2.18304e-11 0 0 0 2.71273e-11 9.9486e-12 0 0 0 
0 0 0 0 0 0 0 0 0 
0 1.38107e-11 0 0 0 0 0 0 1.71713e-11 
1.54385e-12 0 0 0 0 0 0 0 0 
0 0 0 0 0 0 0 0 0 
0 0 0 0 0 0 0 0 0 
0 0 8.88865e-13 0 0 0 0 0 0 
0 0 0 0 0 0 0 0 0 
0 0 0 0 0 0 0 0 0 
0 0 0 0 0 0 0 0 0 
0 0 0 0 0 0 0 0 1.70315e-12 
0 0 0 0 0 0 0 0 0 
0 0 0 0 0 0 0 0 0 
0 0 0 0 0 0 0 0 0 
0 0 0 0 0 0 0 0 0 
0 0 0 0 0 0 0 0 0 
0 0 0 0 0 0 0 0 0 
0 0 0 0 0 0 0 0 0 
0 0 0 0 0 0 0 0 0 
0 0 0 0 0 0 0 0 0 
0 2.21442e-12 0 0 0 0 0 0 0 
0 0 0 0 0 0 0 0 0 
0 0 0 0 0 0 0 0 0 
0 0 0 0 0 4.66816e-12 0 0 0 
0 0 0 0 0 0 0 0 0 
0 1.50038e-12 0 0 0 0 0 0 0 
0 0 8.8754e-12 0 0 0 0 0 0 
0 0 0 0 0 1.41929e-11 1.4564e-11 0 0 
0 0 0 0 0 0 0 0 0 
0 0 2.82135e-12 0 0 0 0 0 0 
0 0 0 0 0 0 0 0 0 
1.23215e-11 0 0 0 0 1.9883e-11 0 0 0 
0 0 0 0 0 1.40429e-11 0 0 0 
0 0 0 1.52021e-12 0 0 0 0 0 
0 0 0 0 0 0 0 0 0 
0 0 0 0 0 0 0 0 0 
0 0 0 0 0 1.16234e-11 0 1.70349e-11 0 
0 0 0 0 1.12078e-12 0 0 0 0 
0 0 0 0 0 0 0 0 0 
0 0 0 0 0 0 0 0 0 
0 0 0 0 0 0 0 0 0 
0 0 0 0 0 0 0 0 0 
0 0 0 0 0 0 0 0 0 
0 0 0 0 0 0 0 5.6881e-12 0 
0 0 0 0 0 0 0 0 0 
0 0 0 0 0 0 0 0 0 
0 0 0 0 0 0 0 0 0 
0 0 0 0 0 0 0 0 0 
0 0 0 0 0 0 0 0 0 
0 0 0 0 0 0 0 0 0 
0 0 0 0 0 0 0 0 0 
0 0 0 0 0 0 0 0 0 
0 0 0 0 0 0 0 0 0 
0 0 0 0 0 0 0 0 0 
0 0 0 0 0 0 0 0 0 
0 0 0 0 0 1.25998e-11 0 2.5736e-11 0 
0 0 0 0 0 0 0 0 0 
0 0 0 0 2.71423e-11 0 3.03708e-11 0 0 
8.45938e-12 0 0 0 0 0 0 0 0 
3.28829e-11 0 0 0 0 0 0 0 0 
0 1.75738e-11 2.59776e-11 0 0 0 0 0 0 
0 0 0 0 0 0 0 5.66954e-13 0 
0 0 0 0 0 0 0 0 0 
0 0 0 0 0 0 7.33542e-12 0 9.11974e-14 
0 0 0 0 0 0 0 0 0 
0 0 0 0 0 0 0 0 0 
0 0 0 0 0 0 0 0 0 
0 0 0 0 0 0 0 0 0 
0 0 0 2.2613e-12 0 0 0 0 0 
0 1.51068e-12 0 0 0 0 0 0 0 
0 0 0 0 0 0 0 0 0 
0 0 1.1301e-11 0 0 0 0 0 0 
0 0 0 0 0 0 0 0 0 
0 0 0 0 0 0 0 0 0 
0 0 0 0 0 0 0 0 0 
0 0 0 0 0 0 0 0 0 
0 0 0 0 0 0 0 0 0 
0 0 0 0 0 0 0 0 0 
0 0 0 0 7.7042e-12 0 0 0 0 
0 0 2.56093e-13 0 0 0 0 0 0 
0 0 0 0 0 0 0 0 0 
0 0 5.43686e-12 8.13746e-12 0 0 0 1.36952e-11 0 
0 0 0 0 0 0 0 0 0 
0 1.80458e-11 0 9.90677e-12 0 0 0 0 0 
0 0 9.60001e-12 0 0 0 0 0 0 
0 0 0 0 0 0 0 0 0 
0 0 0 0 0 0 0 3.88355e-12 0 
0 0 0 0 4.12352e-12 0 0 0 0 
0 3.41172e-11 0 0 0 0 0 0 0 
8.08299e-12 0 0 0 0 0 0 0 0 
0 0 0 0 0 0 0 0 0 
4.94965e-12 0 0 0 0 0 0 9.27255e-12 0 
0 0 0 0 0 0 1.066e-11 0 0 
0 0 0 0 0 0 0 0 0 
0 0 0 0 0 0 0 0 0 
0 2.96021e-12 0 0 0 0 0 0 0 
0 0 0 0 0 0 0 0 0 
0 0 0 0 0 0 0 0 0 
0 0 0 0 0 0 0 0 8.14029e-12 
0 0 0 2.22199e-11 0 0 0 0 0 
0 0 0 0 0 0 0 0 0 
0 0 0 0 0 0 0 0 0 
0 0 0 0 0 0 0 0 0 
0 0 0 0 0 0 0 0 0 
0 0 0 0 0 0 0 0 0 
0 0 0 0 0 0 0 0 0 
0 0 0 0 0 0 0 0 0 
0 0 0 0 0 0 0 0 0 
0 0 3.75929e-12 0 0 0 0 0 0 
0 0 0 0 0 0 0 0 0 
0 0 1.33687e-11 1.33103e-11 0 1.25158e-11 0 0 0 
3.73579e-11 0 3.48659e-11 0 0 0 0 0 0 
2.38438e-11 0 0 0 0 0 0 0 0 
0 2.82753e-11 0 0 0 0 0 0 0 
0 0 0 0 0 0 0 0 0 
0 0 0 8.45666e-12 0 0 0 0 0 
3.64378e-11 0 0 8.71852e-12 0 1.18195e-11 0 0 0 
0 0 0 0 0 0 1.02181e-11 0 0 
0 0 0 0 0 0 0 0 0 
3.31623e-11 0 0 0 0 0 0 0 0 
0 0 0 0 0 0 0 0 0 
0 0 0 9.59986e-12 0 0 1.15889e-11 0 0 
0 0 0 0 0 0 0 0 0 
0 0 0 0 0 0 0 0 0 
0 0 0 0 0 0 0 0 0 
0 0 0 0 0 0 0 0 0 
0 0 0 4.59724e-12 0 0 0 0 0 
0 0 0 0 0 0 0 0 0 
1.09246e-11 0 0 0 0 0 0 0 0 
0 0 0 0 0 0 0 0 0 
0 0 0 0 0 0 0 0 0 
0 0 0 0 0 0 0 0 0 
0 0 0 0 0 0 0 0 0 
0 0 0 0 0 0 0 0 0 
0 0 0 0 0 0 0 0 0 
2.73126e-12 0 0 0 0 0 5.11168e-12 0 0 
2.96788e-11 0 3.45379e-11 0 0 0 0 0 0 
0 0 0 0 0 0 0 0 0 
0 0 0 0 1.7534e-11 0 2.44261e-11 0 0 
2.86565e-11 2.4807e-11 0 0 0 4.26423e-11 0 0 0 
0 0 0 0 0 0 0 0 0 
0 0 0 2.10143e-11 7.5371e-11 0 0 2.85064e-11 0 
4.17568e-11 0 0 0 0 0 0 0 0 
0 3.00354e-11 0 0 0 0 0 0 0 
0 0 0 0 1.65691e-11 0 0 0 1.33914e-11 
0 0 0 0 0 0 0 0 0 
0 0 0 0 0 0 0 0 0 
0 1.51732e-13 0 5.34593e-11 1.82968e-11 0 0 0 0 
0 0 0 0 1.17338e-11 0 0 0 0 
0 9.00293e-12 0 0 0 0 0 0 0 
0 0 1.63e-11 0 0 0 0 0 0 
0 0 0 0 0 0 0 0 0 
0 0 0 0 0 0 0 0 0 
0 0 0 0 0 0 0 0 0 
0 0 0 0 0 0 0 0 3.87495e-11 
0 0 0 0 0 0 0 0 0 
0 0 0 0 0 0 0 0 0 
0 0 0 0 0 0 0 0 0 
0 0 0 0 0 0 0 0 0 
0 0 0 0 0 0 0 0 0 
0 0 0 0 0 0 0 0 0 
0 0 0 0 0 0 0 0 0 
0 0 0 0 0 0 0 0 0 
0 0 0 2.68566e-12 0 0 0 0 0 
3.28276e-11 0 0 0 4.19542e-11 0 0 0 0 
0 0 0 0 0 0 0 0 0 
0 0 1.60284e-11 3.41633e-11 0 0 0 0 0 
0 0 0 0 1.66004e-11 0 0 0 0 
0 0 0 0 0 0 0 0 7.73276e-12 
3.14761e-11 0 6.06612e-11 1.14386e-10 0 0 0 0 0 
0 0 0 0 0 0 3.1457e-13 0 0 
3.65269e-11 3.9725e-11 0 0 6.67185e-11 0 1.71897e-11 0 0 
3.70131e-11 0 0 0 0 0 0 0 0 
0 0 0 0 2.209e-11 0 0 0 0 
0 8.04344e-12 0 0 0 0 0 0 0 
0 0 0 2.8803e-12 4.64845e-11 0 0 1.26792e-11 0 
8.20773e-12 0 0 1.78017e-11 0 0 0 0 0 
0 0 0 0 0 0 0 0 0 
0 9.78036e-12 1.06243e-11 0 0 0 0 0 0 
0 2.43241e-11 0 0 0 0 0 0 0 
0 0 0 0 0 0 0 0 0 
0 0 0 0 0 0 0 1.26431e-11 0 
0 1.54438e-11 0 0 4.1293e-12 0 0 0 0 
0 0 0 0 4.96865e-12 0 0 0 0 
0 0 0 0 0 0 0 0 0 
0 0 0 0 0 0 0 0 0 
0 0 0 0 0 0 0 0 0 
0 0 0 0 0 0 0 0 0 
0 0 0 1.32744e-12 0 0 0 0 0 
0 0 0 0 0 0 0 0 0 
0 0 0 0 0 1.59104e-11 0 0 0 
0 0 0 0 1.61101e-11 0 0 0 0 
0 0 4.39479e-11 0 0 0 0 4.91521e-11 0 
0 0 0 0 0 1.76578e-11 0 0 0 
0 0 0 0 9.28288e-11 0 2.11569e-10 0 0 
0 0 5.22241e-11 3.34684e-11 2.04982e-11 0 0 2.99879e-11 0 
0 0 0 0 0 9.41469e-12 0 0 7.41515e-11 
0 0 0 0 0 0 8.01036e-11 0 0 
0 0 0 0 7.62402e-11 0 0 5.85367e-11 0 
0 0 0 0 0 2.74242e-11 0 0 0 
3.93069e-11 0 0 0 0 0 2.28318e-11 0 0 
0 0 0 0 0 0 0 0 0 
0 0 0 0 8.55445e-11 0 1.41912e-10 0 0 
0 3.13071e-11 0 0 0 0 3.26115e-11 0 0 
6.08335e-11 0 4.09021e-11 0 0 1.91615e-11 0 0 0 
0 0 0 0 2.00055e-11 0 0 0 0 
0 0 2.63631e-11 3.04763e-11 0 0 0 0 0 
0 0 0 0 0 0 0 0 0 
0 0 0 0 0 0 0 0 0 
0 0 0 0 0 0 0 0 0 
0 0 2.814e-11 4.14545e-12 0 0 0 3.89571e-11 0 
0 0 0 0 0 0 0 0 0 
0 0 0 0 0 0 0 0 0 
0 0 0 0 0 0 0 0 0 
0 0 0 0 0 0 0 0 0 
0 0 0 0 0 0 0 0 0 
0 0 0 0 0 0 0 0 0 
0 0 0 0 0 0 0 3.52324e-11 0 
0 0 0 0 1.23353e-12 9.65168e-12 0 0 0 
0 0 0 0 0 4.52803e-11 0 0 0 
0 2.43394e-10 0 0 6.45029e-11 0 0 0 0 
2.66687e-12 0 0 1.39301e-11 0 0 0 0 0 
0 0 0 2.0049e-10 2.42318e-08 0 0 1.66077e-12 4.56112e-11 
0 3.13176e-11 0 0 0 0 0 0 0 
0 0 0 0 2.49422e-10 2.56806e-13 0 0 3.61224e-11 
0 1.66436e-11 0 2.27006e-11 0 0 0 0 5.44259e-11 
0 0 2.94943e-12 0 0 0 0 0 0 
0 0 0 0 0 0 0 0 3.3177e-11 
0 0 0 0 1.04084e-11 0 0 0 0 
0 0 4.18191e-11 0 0 0 0 0 0 
0 0 6.62577e-11 6.55501e-11 0 0 0 0 0 
1.28085e-10 8.91642e-12 0 0 0 1.04862e-10 5.00135e-11 0 0 
0 0 0 0 0 0 0 0 0 
0 2.78144e-11 0 0 0 0 0 0 0 
2.54774e-11 0 0 0 0 2.78455e-11 0 0 0 
0 0 0 0 0 0 0 0 0 
0 0 0 0 0 0 0 1.53003e-11 0 
0 0 1.64924e-11 0 0 0 0 0 0 
0 0 0 6.64575e-11 0 3.47883e-11 0 0 0 
0 0 0 0 0 0 0 0 0 
0 0 0 0 0 0 0 0 0 
0 0 0 0 0 0 0 0 0 
0 0 0 0 0 0 0 0 0 
0 0 0 0 0 0 0 0 0 
0 0 0 0 0 0 0 0 0 
0 0 0 0 1.72753e-11 1.32342e-11 0 0 5.3101e-11 
0 0 0 4.50481e-11 7.0245e-12 2.84503e-11 0 0 0 
0 0 0 0 0 0 0 0 0 
0 3.49845e-11 0 0 0 1.96843e-11 7.07882e-11 0 5.46636e-12 
0 1.93822e-11 0 0 9.89222e-12 2.44001e-11 4.7179e-11 0 0 
0 0 0 0 0 0 4.47683e-11 0 2.00721e-11 
0 0 0 0 0 0 0 2.33529e-11 5.66364e-11 
2.57945e-11 1.36774e-10 2.5328e-08 0 0 0 0 0 0 
2.66113e-11 0 0 0 2.62998e-08 0 9.84596e-13 1.35421e-10 0 
0 0 5.37127e-11 0 2.71821e-11 1.10927e-10 1.40981e-10 0 0 
0 0 0 5.13826e-11 2.14466e-11 1.89707e-11 0 0 0 
0 0 0 2.64405e-11 0 0 0 0 0 
9.28355e-12 0 1.15975e-10 5.19119e-11 0 0 0 0 0 
0 0 0 2.50912e-08 0 0 0 3.25564e-11 0 
9.51731e-11 0 0 1.85999e-10 5.08986e-11 0 0 7.02908e-11 6.73845e-11 
0 0 3.46317e-11 0 0 3.20374e-11 0 0 0 
0 4.29207e-11 0 0 2.11201e-11 0 0 0 0 
0 0 0 0 0 0 0 3.15039e-11 0 
0 0 0 0 0 0 0 0 0 
0 0 0 0 0 0 0 0 0 
0 0 0 0 0 0 0 0 8.05223e-12 
0 0 0 0 0 0 0 0 0 
0 0 8.43791e-12 0 0 0 0 0 0 
0 0 0 0 0 0 0 0 0 
0 0 0 0 0 0 0 0 0 
0 0 0 0 0 0 0 0 0 
0 0 0 0 0 0 0 0 0 
0 0 0 0 0 0 0 0 0 
1.16022e-11 0 0 0 0 7.96119e-11 9.10387e-11 0 0 
0 2.0881e-11 0 0 0 0 0 0 0 
0 0 0 0 0 1.28009e-11 0 0 0 
0 0 0 0 0 0 4.49855e-11 0 0 
0 0 0 0 1.08241e-11 0 8.18335e-11 8.87281e-11 0 
0 0 1.06611e-10 8.17273e-11 0 0 0 0 0 
0 0 0 0 0 4.68517e-11 0 0 0 
1.3003e-10 0 0 0 1.5111e-10 0 0 0 0 
3.64953e-11 0 1.76247e-10 0 0 0 0 0 5.81331e-11 
2.28523e-11 0 7.51187e-11 2.1714e-11 0 0 2.45457e-08 0 0 
3.42287e-11 0 0 0 0 2.08127e-11 1.62682e-11 0 0 
0 0 4.33531e-11 0 0 8.98743e-11 6.61701e-11 0 0 
1.11723e-10 7.89147e-11 2.76299e-11 0 0 0 0 0 1.37396e-10 
0 0 0 3.57723e-11 0 1.80978e-10 0 0 0 
1.14068e-10 0 0 0 4.83369e-11 6.5234e-11 0 9.55188e-12 0 
0 0 9.17586e-12 2.88396e-11 0 0 0 0 0 
0 0 0 0 0 3.23545e-11 0 8.36382e-11 0 
0 0 5.7279e-11 0 3.362e-11 0 0 0 0 
0 0 0 0 0 0 0 0 0 
0 4.89783e-12 0 0 0 0 0 1.68214e-11 0 
0 0 2.0688e-11 9.43391e-11 1.02911e-11 0 0 0 0 
0 5.56709e-11 0 3.70665e-11 3.21036e-11 0 0 0 7.98372e-12 
0 2.05028e-11 0 0 0 0 0 0 0 
0 0 0 0 0 0 0 0 0 
0 0 0 0 0 0 0 0 0 
0 0 0 0 0 0 0 0 0 
0 0 0 0 0 0 0 0 0 
0 0 0 0 0 0 0 0 0 
0 5.59258e-12 0 5.62483e-11 0 0 0 0 0 
0 0 0 4.08267e-11 5.02416e-11 0 0 0 0 
0 2.61684e-08 0 2.41566e-10 0 0 1.24195e-11 0 0 
0 1.21617e-10 0 0 0 0 0 0 0 
2.59322e-11 0 0 0 0 2.52813e-11 6.72717e-11 0 0 
0 0 0 0 1.20909e-11 0 0 0 0 
0 0 0 0 0 0 5.14409e-11 0 0 
0 0 9.39795e-11 0 2.92794e-11 0 0 0 0 
0 0 1.2991e-12 0 0 0 4.91354e-11 1.34254e-11 0 
0 1.27734e-10 0 0 0 0 3.63964e-10 0 0 
0 0 0 0 0 0 0 2.47889e-11 0 
0 0 0 0 0 2.27319e-10 0 0 5.66166e-11 
0 0 0 4.09601e-11 5.68671e-11 2.45321e-11 0 0 0 
1.32687e-10 0 0 0 0 0 2.71551e-08 2.69985e-10 0 
0 0 1.21984e-10 0 0 9.8486e-11 0 0 0 
8.95674e-12 0 0 0 0 9.43028e-12 0 0 0 
0 6.04325e-11 1.21534e-10 0 0 0 0 4.4298e-11 6.78476e-11 
0 0 0 0 0 0 0 7.6262e-12 0 
0 0 0 0 8.73525e-12 0 0 0 0 
0 0 0 0 4.4254e-11 0 0 0 0 
0 0 7.33312e-11 0 0 0 0 0 0 
0 0 0 5.46384e-11 0 0 0 0 0 
0 0 5.86832e-12 0 0 7.71561e-12 0 0 0 
0 0 0 0 0 0 0 0 0 
0 0 0 0 0 0 0 0 0 
0 0 0 0 0 0 0 0 0 
0 0 0 0 0 0 0 0 0 
0 0 9.92962e-12 0 0 0 0 3.71455e-11 0 
0 6.50655e-11 0 0 2.46171e-08 0 3.43655e-11 0 0 
4.3519e-11 0 3.72045e-11 0 0 0 0 0 0 
3.62811e-10 0 0 0 0 2.88761e-11 1.48821e-10 0 0 
1.55235e-10 0 0 0 8.80208e-11 1.16854e-11 0 0 0 
2.94349e-12 0 4.45806e-11 6.61179e-12 0 0 3.24398e-11 0 0 
0 0 0 1.77913e-11 0 1.97628e-11 0 2.00853e-11 0 
0 0 0 0 0 2.42122e-10 0 0 0 
0 3.3901e-11 7.0698e-11 1.02763e-10 0 0 1.66633e-10 0 0 
3.72099e-11 0 0 6.16636e-13 0 0 9.70182e-11 1.02237e-10 0 
1.37802e-10 0 1.59322e-10 0 0 0 0 6.33166e-11 0 
0 0 1.8239e-11 0 0 0 0 0 0 
4.11699e-11 0 0 2.43688e-08 1.5995e-10 0 1.15715e-10 0 0 
0 0 0 0 0 1.05038e-10 0 0 0 
5.10725e-12 1.24493e-11 0 0 0 1.87752e-10 0 0 1.98679e-10 
0 0 0 0 0 0 7.77602e-11 0 3.58762e-11 
0 0 0 0 0 0 0 0 1.27622e-10 
0 0 0 7.08877e-11 1.56877e-10 0 0 0 0 
0 0 0 0 0 0 0 7.00082e-12 0 
0 0 0 0 0 0 0 0 4.07951e-12 
0 0 0 0 0 0 1.25389e-10 0 8.20623e-11 
0 0 0 2.48207e-08 0 0 0 0 7.34696e-11 
0 0 3.806e-11 0 2.26328e-11 0 8.91169e-12 0 0 
0 1.07517e-11 0 0 0 0 0 0 0 
0 0 0 0 0 0 0 0 0 
0 0 0 0 0 0 0 0 0 
0 0 0 0 0 0 0 0 0 
0 0 0 0 0 0 0 0 0 
0 0 0 0 0 0 0 0 4.62378e-12 
0 1.92066e-10 8.65142e-11 1.22465e-10 3.66134e-11 0 0 0 0 
0 0 0 0 0 0 0 0 0 
2.19361e-10 0 0 1.4e-11 0 1.11917e-10 1.52003e-10 5.23596e-11 0 
0 0 0 0 0 0 0 0 0 
3.2926e-11 0 0 0 0 3.84714e-11 0 7.98814e-11 0 
0 0 0 0 2.73597e-11 0 0 2.1529e-11 0 
6.16189e-11 0 0 0 1.50984e-10 0 4.88967e-11 0 0 
2.97628e-10 0 0 3.13967e-10 0 0 0 0 0 
0 0 0 3.90042e-11 0 7.15855e-11 0 0 2.39056e-10 
0 0 0 0 4.45535e-11 4.8962e-12 0 0 0 
0 0 0 0 0 0 0 0 2.0566e-11 
0 0 0 0 1.03486e-10 0 0 4.31513e-11 0 
6.90104e-11 0 0 1.79985e-11 0 0 0 0 9.78629e-11 
0 0 0 0 1.624e-10 2.84507e-10 2.6947e-08 0 0 
0 1.14068e-11 0 0 0 6.98518e-11 0 0 0 
0 1.42582e-11 0 0 7.38836e-11 0 1.78284e-10 7.73752e-11 0 
0 0 0 0 0 4.71181e-11 0 0 0 
0 0 0 0 0 0 0 0 0 
0 0 2.88036e-12 0 0 0 8.9083e-12 0 0 
0 0 0 2.21628e-11 4.87273e-11 0 0 1.75414e-11 3.43074e-11 
0 0 0 0 0 6.11023e-12 0 6.09292e-11 4.30216e-11 
0 0 0 0 0 1.49073e-11 0 0 0 
0 1.26975e-11 1.92267e-12 0 0 0 0 0 0 
0 0 0 0 0 0 0 0 0 
0 0 0 0 0 1.58783e-13 0 0 0 
0 0 0 0 0 0 0 0 0 
0 0 0 0 0 0 0 0 0 
0 0 0 1.79523e-12 0 0 6.60384e-11 1.57103e-11 0 
1.12309e-10 2.21433e-11 3.41152e-11 0 0 0 6.34235e-12 0 1.96366e-10 
0 0 2.46735e-11 0 0 2.80563e-10 0 0 2.21289e-10 
0 0 0 0 2.6647e-08 0 0 3.80809e-11 0 
4.31219e-11 0 0 1.86179e-14 2.49588e-11 0 0 0 0 
0 0 0 0 0 0 0 0 0 
0 0 2.37404e-12 0 0 6.6445e-11 7.17142e-11 2.11138e-11 0 
0 0 0 0 0 0 0 0 0 
0 0 0 0 0 0 0 0 1.30616e-10 
0 1.5613e-11 1.87476e-10 1.06e-10 2.07749e-12 0 2.47633e-11 0 0 
0 0 0 0 0 2.20445e-11 0 0 6.27534e-13 
0 0 0 9.41098e-11 0 0 0 0 2.89484e-11 
2.88891e-11 0 1.5133e-10 0 0 3.42401e-12 0 0 0 
0 8.73426e-11 0 0 0 0 0 1.26312e-10 0 
0 0 0 2.46491e-10 0 0 0 0 0 
0 0 0 0 0 4.63531e-11 0 0 0 
0 0 0 4.25404e-11 0 0 0 0 0 
0 0 0 5.31925e-11 6.6086e-11 9.80157e-11 9.13043e-11 0 0 
0 0 0 0 0 0 0 0 0 
0 0 0 2.5632e-11 0 0 0 0 0 
0 0 0 4.52341e-11 0 1.4077e-10 4.90139e-11 0 0 
0 1.97464e-10 0 0 0 0 0 0 0 
0 0 0 0 3.5123e-11 0 0 0 0 
0 0 0 0 0 0 0 0 0 
0 0 0 0 0 0 0 0 0 
0 0 0 0 0 0 0 0 0 
0 0 0 0 1.32262e-13 0 0 0 0 
0 0 0 0 0 0 0 0 0 
0 0 5.50845e-11 0 0 5.94505e-11 0 3.29595e-11 1.98017e-11 
0 0 0 0 0 0 0 0 0 
0 1.3769e-10 0 0 0 0 0 0 0 
0 6.54312e-11 2.53981e-10 0 0 8.15191e-11 0 0 0 
4.36476e-11 0 0 1.35727e-11 0 0 0 0 9.77104e-12 
0 0 0 0 0 0 2.92372e-11 0 0 
0 0 0 7.531e-11 7.59366e-11 0 0 0 0 
1.85728e-10 0 0 3.00719e-08 0 0 0 3.45504e-08 0 
0 0 0 1.63039e-10 0 1.10411e-10 0 7.44456e-11 1.78728e-10 
1.78749e-11 1.58676e-11 7.91737e-11 0 0 0 0 5.27148e-11 0 
5.47656e-11 0 0 0 0 0 1.76662e-11 0 0 
0 0 0 0 0 0 0 0 0 
1.99743e-11 0 0 0 0 0 0 0 2.62804e-13 
0 0 0 1.53273e-11 0 0 0 5.42638e-11 0 
7.5537e-11 0 0 0 0 0 0 9.37323e-11 4.48427e-11 
0 0 0 0 0 0 1.65298e-10 0 0 
0 0 0 0 0 0 0 0 0 
0 0 0 0 0 7.26234e-11 6.08884e-11 0 0 
0 0 0 0 0 0 0 0 0 
0 3.6872e-11 0 6.20184e-11 0 0 0 0 0 
0 0 9.53339e-11 0 0 0 0 0 0 
0 0 4.68689e-11 6.3639e-11 1.82571e-11 1.03109e-10 0 4.4773e-11 1.32007e-10 
0 0 0 0 0 0 0 0 0 
0 0 0 0 0 0 0 0 0 
0 0 0 0 0 0 0 0 0 
0 0 0 0 0 0 0 0 0 
0 0 0 0 0 0 0 0 0 
0 0 0 0 0 0 0 0 0 
0 3.7996e-11 0 8.45644e-11 0 5.72684e-11 0 0 0 
0 0 0 1.08396e-10 5.17892e-11 4.9443e-11 1.91233e-11 1.02652e-10 0 
0 0 0 0 0 0 0 0 0 
0 0 0 0 0 5.64408e-12 0 0 0 
0 0 0 0 0 0 1.01769e-10 0 0 
0 0 8.12408e-11 0 0 0 1.33404e-11 0 0 
0 0 0 0 0 8.20231e-11 0 1.8979e-10 0 
0 0 2.43795e-10 0 0 0 0 0 0 
0 0 0 0 2.61397e-08 0 0 0 0 
0 0 0 0 0 0 0 0 0 
0 0 0 0 0 0 0 2.06873e-12 1.10623e-11 
0 0 0 0 2.26605e-11 0 0 0 6.57071e-11 
0 0 0 0 1.40702e-10 0 0 0 0 
5.77244e-11 0 0 0 0 0 1.04436e-10 0 8.37713e-11 
6.77011e-11 1.02157e-10 0 0 0 0 1.27044e-10 0 0 
1.03519e-10 2.48386e-08 0 0 0 0 4.12679e-11 0 0 
0 1.96531e-10 0 0 0 0 2.81885e-08 0 0 
7.01456e-11 0 0 0 0 0 0 0 0 
0 0 0 0 0 0 0 0 0 
0 5.44766e-11 0 0 0 9.57223e-11 6.15457e-11 0 0 
5.18711e-12 0 0 0 0 0 0 0 0 
0 0 0 0 0 0 0 0 7.35992e-11 
3.92528e-11 0 0 0 0 0 0 0 0 
0 0 0 0 0 0 0 0 0 
0 0 0 0 0 0 0 0 0 
0 0 0 0 0 0 0 0 0 
0 0 0 0 0 0 0 0 0 
0 0 0 0 0 0 2.25336e-11 0 0 
0 6.55604e-11 0 0 0 0 0 1.00387e-10 0 
4.03948e-10 0 0 0 3.04915e-11 7.75565e-11 0 0 0 
0 3.8319e-08 3.85184e-08 0 0 0 3.21406e-11 0 0 
0 0 5.94072e-11 9.90442e-12 0 0 0 0 0 
0 0 0 0 0 4.6896e-11 0 0 0 
0 0 2.63395e-11 0 0 0 0 0 0 
0 1.30199e-11 0 0 1.47629e-11 0 0 0 0 
0 0 0 0 3.31207e-08 0 0 2.15778e-10 0 
2.70808e-10 0 2.74789e-10 0 0 1.38084e-11 0 0 9.35218e-12 
0 0 0 0 0 5.43102e-11 0 0 0 
0 0 0 0 0 0 0 0 0 
0 7.47083e-11 0 0 0 0 0 0 0 
0 3.9851e-12 0 0 0 0 0 0 0 
0 0 0 1.22408e-10 0 0 0 1.66296e-10 0 
0 3.22597e-12 0 0 0 0 0 0 0 
0 7.50997e-11 1.30585e-11 0 1.0588e-10 5.75146e-11 0 2.23674e-10 0 
0 0 0 0 9.17613e-11 0 0 0 2.20674e-11 
0 0 0 0 0 0 0 0 0 
0 0 0 0 6.91043e-12 1.72087e-11 0 0 1.65315e-11 
0 0 0 0 2.63361e-10 0 0 1.35688e-10 0 
4.31559e-11 1.30258e-10 0 0 0 1.13155e-10 2.31207e-10 0 0 
0 0 0 0 0 0 0 0 1.36985e-11 
0 0 0 0 9.83517e-12 6.00696e-12 0 0 0 
0 0 0 0 0 0 0 0 0 
0 0 0 0 0 0 0 0 0 
0 0 0 0 0 0 0 3.57435e-13 0 
0 0 0 0 0 0 0 0 0 
0 0 0 0 1.8386e-11 0 0 0 0 
0 0 6.79391e-11 0 0 0 0 0 0 
0 1.68465e-11 0 0 4.4313e-11 0 8.7468e-11 0 0 
0 0 2.40511e-10 2.37759e-10 0 9.49901e-11 1.03562e-10 0 0 
0 0 3.82458e-11 0 0 0 0 0 0 
7.4604e-12 0 0 8.50133e-11 0 1.19852e-10 0 0 0 
0 0 0 0 0 0 0 0 0 
0 0 0 0 0 0 1.0925e-11 0 2.47369e-11 
0 5.01606e-10 0 0 0 6.3734e-11 0 2.90066e-11 0 
5.56091e-11 0 0 0 0 0 7.70293e-11 0 0 
0 9.11336e-11 0 0 5.68501e-11 0 0 4.89746e-11 0 
0 0 0 0 0 3.11457e-11 0 0 0 
0 0 0 0 5.56092e-12 0 0 0 0 
0 0 0 0 0 0 0 0 0 
0 3.22223e-11 5.40176e-11 0 0 0 0 0 0 
3.80474e-11 0 0 8.78423e-11 0 0 0 0 0 
0 0 0 0 0 2.3785e-11 0 0 2.10046e-12 
5.25282e-11 0 0 2.12445e-10 0 0 0 4.70658e-11 0 
1.21152e-11 0 1.20521e-12 0 0 0 0 0 0 
0 0 0 0 0 0 0 0 0 
2.01513e-10 1.64994e-10 2.66733e-08 0 0 2.00631e-10 0 0 0 
0 0 5.41118e-11 0 0 2.9466e-11 0 0 0 
0 0 0 1.47603e-11 0 0 0 0 0 
0 0 0 0 0 0 0 0 0 
0 0 0 0 0 0 0 0 0 
0 0 0 0 0 0 0 0 0 
0 0 0 0 0 0 0 0 0 
0 0 0 0 0 0 0 0 0 
0 0 0 0 0 0 0 5.24898e-11 0 
0 2.52963e-11 0 0 0 2.66617e-08 0 4.00595e-10 1.22149e-10 
0 0 0 0 2.81856e-10 3.03277e-10 0 0 0 
4.9694e-11 2.04215e-10 0 0 1.20516e-10 0 0 0 0 
0 0 0 0 0 0 0 0 0 
0 0 0 3.6683e-11 1.03833e-10 9.91457e-11 0 3.11771e-10 0 
0 2.67209e-11 0 0 0 0 6.5035e-11 0 0 
0 0 1.71366e-12 1.15342e-10 3.57493e-11 0 4.03881e-11 0 0 
0 0 4.23907e-11 0 1.04983e-10 9.3688e-12 1.54042e-11 0 0 
9.77688e-11 0 9.30408e-12 1.35611e-11 0 0 0 5.70555e-11 0 
4.40955e-13 0 0 0 0 0 0 0 0 
0 0 0 0 3.36426e-11 0 4.78519e-11 0 0 
0 0 0 0 0 0 0 0 0 
0 0 0 0 0 0 4.94112e-11 0 0 
0 0 1.25235e-10 0 0 0 0 1.25144e-11 0 
0 0 0 0 0 5.16323e-11 0 0 9.93147e-12 
0 0 0 0 0 9.26876e-14 0 0 1.99485e-10 
2.7952e-10 0 0 0 9.83779e-11 0 0 1.85836e-11 0 
2.26233e-11 0 0 0 0 0 0 0 0 
0 0 0 0 0 0 0 0 0 
1.17725e-10 8.58548e-11 7.18781e-11 0 0 0 0 0 0 
0 0 0 3.17302e-11 4.40798e-11 1.12942e-10 0 3.09393e-08 0 
0 0 0 0 0 0 0 0 0 
0 0 0 0 0 0 0 0 0 
0 0 0 0 0 0 0 0 0 
0 0 0 0 0 0 0 0 0 
0 0 0 0 0 0 0 0 0 
0 0 0 0 0 0 0 0 0 
0 0 0 0 0 0 0 2.56453e-10 4.47617e-11 
0 0 0 0 2.87738e-10 1.65392e-10 0 1.28409e-12 9.92307e-11 
0 4.15113e-11 0 2.00122e-10 0 0 0 0 0 
4.38257e-11 0 0 0 0 0 0 0 0 
0 0 0 0 0 0 0 1.33334e-10 0 
0 1.33369e-10 0 0 0 0 5.82902e-11 0 2.81077e-11 
1.51875e-11 0 0 6.26309e-11 8.79753e-12 3.45659e-11 0 0 0 
0 1.06909e-11 0 0 0 3.75216e-11 2.32322e-10 2.51748e-11 0 
0 0 0 2.96595e-11 0 0 0 1.89376e-11 0 
0 0 0 0 0 0 0 0 0 
0 5.96002e-11 1.40003e-10 0 0 0 0 0 2.02391e-11 
7.6368e-12 0 6.64116e-11 0 0 0 0 0 0 
1.25237e-10 0 0 0 0 0 0 0 9.84928e-11 
0 0 0 0 0 0 0 0 0 
0 0 0 0 0 0 3.36176e-11 8.09122e-11 0 
3.64377e-12 1.15871e-10 0 0 0 0 0 0 0 
1.0246e-10 0 0 0 0 0 0 0 0 
0 2.63577e-08 0 0 0 0 0 5.17502e-11 0 
0 0 0 0 0 0 0 0 0 
2.38071e-11 0 0 0 1.27671e-10 0 0 1.08484e-12 3.2591e-10 
0 0 0 1.57492e-10 0 0 0 0 0 
0 0 8.20241e-11 0 0 0 0 0 0 
0 0 0 4.97023e-11 0 0 0 0 0 
0 0 0 0 0 0 0 0 0 
0 0 0 0 0 0 0 0 0 
0 0 0 0 0 0 0 0 0 
0 1.04668e-12 0 0 0 0 0 0 0 
0 0 0 0 0 1.65725e-11 0 0 0 
0 0 0 0 0 0 1.4583e-10 0 0 