# vtk DataFile Version 5.1
vtk output
ASCII
DATASET STRUCTURED_POINTS
DIMENSIONS 250 250 1
SPACING 1 1 1
ORIGIN 0 0 0
POINT_DATA 62500
FIELD FieldData 6
feature_1 1 62500 float
0 0 0 0 0 0 0 0 0 
0 0 0 0 0 0 0 0 0 
0 0 0 0 0 0 0 0 0 
0 0 0 0 0 0 0 0 0 
0 0 0 0 0 0 0 0 0 
0 0 0 0 0 0 0 0 0 
0 0 0 0 0 0 0 0 0 
0 0 0 0 0 0 0 0 0 
0 0 0 0 0 0 0 0 0 
0 0 0 0 0 0 0 0 0 
0 0 0 0 0 0 0 0 0 
0 0 0 0 0 0 0 0 0 
0 0 0 0 0 0 0 0 0 
0 0 0 0 0 0 0 0 0 
0 0 0 0 0 0 0 0 0 
0 0 0 0 0 0 0 0 0 
0 0 0 0 0 0 0 0 0 
0 0 0 0 0 0 0 0 0 
0 0 0 0 0 0 0 0 0 
0 0 0 0 0 0 0 0 0 
0 0 0 0 0 0 0 0 0 
0 0 0 0 0 0 0 0 0 
0 0 0 0 0 0 0 0 0 
0 0 0 7.20279e-14 0 0 0 0 0 
2.95929e-13 0 0 0 0 0 0 0 0 
0 0 0 0 0 0 0 0 0 
0 0 0 0 0 0 0 0 0 
0 0 0 0 0 0 0 0 0 
0 0 0 0 0 0 0 0 0 
0 0 0 0 0 0 0 0 0 
0 0 0 0 0 0 0 0 0 
0 0 0 0 0 0 0 0 0 
0 0 0 0 0 0 0 0 0 
0 0 0 0 0 0 0 0 0 
0 0 0 0 0 0 0 0 0 
0 0 0 0 0 0 0 0 0 
0 0 0 0 0 0 0 0 0 
0 0 0 0 0 0 0 0 0 
0 0 0 0 0 0 0 0 0 
0 0 0 0 0 0 0 0 0 
0 0 0 0 0 0 0 0 0 
0 0 0 0 0 0 0 0 0 
0 0 0 0 0 0 0 0 0 
0 0 0 0 0 0 0 0 0 
0 0 0 0 0 0 0 0 0 
0 0 0 0 0 0 0 0 0 
0 0 0 0 0 0 0 0 0 
0 0 0 0 0 0 0 0 0 
0 0 0 0 0 0 0 0 0 
0 0 0 0 0 0 0 0 0 
0 0 0 0 0 0 0 0 0 
0 0 0 0 0 0 0 0 0 
0 0 0 0 0 0 0 0 0 
0 0 0 0 0 0 0 0 0 
0 0 0 0 0 0 0 0 0 
0 0 0 0 0 0 0 0 0 
0 0 0 0 0 0 0 0 0 
0 0 0 0 0 0 0 0 0 
0 0 0 0 0 0 0 0 0 
0 0 0 0 0 0 0 0 0 
0 0 0 0 0 0 0 0 0 
0 0 0 0 0 0 0 0 0 
0 0 0 0 0 0 0 0 0 
0 0 0 0 0 0 0 0 0 
0 0 1.34291e-12 0 0 0 0 0 0 
0 0 0 0 0 0 0 0 0 
0 0 0 0 0 0 0 0 0 
0 0 0 0 0 0 0 0 0 
0 0 0 0 0 0 0 0 0 
0 0 0 0 0 0 0 0 0 
0 0 0 0 0 0 0 0 0 
0 0 0 0 0 0 0 0 0 
0 0 0 0 0 0 0 0 0 
0 0 0 0 0 0 0 0 0 
0 0 0 0 0 0 0 0 0 
0 0 0 0 0 0 0 0 0 
0 0 0 0 0 0 0 0 0 
0 0 0 0 0 0 0 0 0 
0 0 0 0 0 0 0 0 0 
0 0 0 0 0 0 0 0 0 
0 0 0 0 0 0 0 0 0 
0 0 0 0 0 0 0 0 0 
0 0 0 0 0 0 0 0 0 
0 0 0 0 0 0 0 0 0 
0 0 0 0 0 0 0 0 0 
0 0 0 0 0 0 0 0 0 
0 0 0 0 0 0 0 0 0 
0 0 0 0 0 0 0 0 0 
0 0 0 0 0 0 0 0 0 
0 0 0 0 0 0 0 0 0 
0 0 0 0 0 0 0 0 0 
0 0 0 0 0 0 0 0 0 
0 0 0 0 0 0 0 0 0 
0 0 0 0 0 0 0 0 3.26971e-13 
0 0 0 0 0 0 0 0 0 
0 0 0 0 0 0 0 0 0 
0 0 0 0 0 0 0 0 0 
0 0 0 0 0 0 0 0 0 
0 0 0 0 0 0 0 0 0 
0 0 0 0 0 0 0 0 0 
0 0 0 0 0 0 0 0 0 
0 0 0 0 0 0 0 0 0 
0 0 0 0 0 0 0 0 0 
0 0 0 0 0 0 0 0 0 
0 0 0 0 0 0 0 0 0 
0 0 0 0 0 0 0 0 0 
0 0 0 0 0 0 0 0 0 
0 0 0 0 0 0 0 0 0 
0 0 0 0 0 0 0 0 0 
0 0 0 0 0 0 0 0 0 
0 0 0 0 0 0 0 0 0 
0 0 0 0 0 0 0 0 0 
0 0 0 0 0 0 0 0 0 
0 0 0 0 0 0 0 0 0 
0 0 0 0 0 0 0 0 0 
0 0 0 0 0 0 0 0 0 
0 0 0 0 0 0 0 0 0 
0 0 0 0 0 0 0 0 0 
0 0 0 0 0 0 0 0 0 
0 0 0 0 0 0 0 0 0 
0 0 0 0 0 0 0 0 0 
0 0 0 0 0 0 0 0 0 
0 0 0 0 0 0 0 0 0 
0 0 0 0 0 0 0 0 0 
0 0 0 0 0 0 0 0 0 
0 0 0 0 0 0 0 0 0 
0 0 0 0 0 0 0 0 0 
0 0 0 0 0 0 0 0 0 
0 0 0 0 0 0 0 0 0 
0 0 0 0 0 0 0 0 0 
0 0 0 0 0 0 0 0 0 
0 0 0 0 0 0 0 0 0 
0 0 0 0 0 0 0 0 0 
0 0 0 0 0 0 0 0 0 
0 0 0 0 0 0 0 0 0 
0 0 0 0 0 0 0 0 0 
2.08866e-13 0 0 0 0 0 0 0 0 
0 0 0 0 0 0 0 0 0 
0 0 0 0 0 0 0 0 0 
0 0 0 0 0 0 0 0 0 
0 0 0 0 0 0 0 0 0 
0 0 0 0 0 0 0 0 0 
0 0 0 0 0 0 0 0 0 
0 0 0 0 0 0 0 0 0 
0 0 0 0 0 0 0 4.46043e-13 0 
0 0 0 0 0 0 0 0 0 
0 0 0 0 0 0 0 0 0 
0 0 0 0 0 0 0 0 0 
0 0 0 0 0 0 0 0 0 
0 0 0 0 0 0 0 0 0 
0 0 0 0 0 0 0 0 0 
0 0 0 0 0 0 0 0 0 
0 0 0 0 0 0 0 0 0 
0 0 0 0 0 0 0 0 0 
0 0 0 0 0 0 0 0 0 
0 0 0 0 0 0 0 0 0 
0 0 0 0 0 0 0 0 0 
0 0 0 0 0 0 0 0 0 
0 0 0 0 0 0 0 8.48018e-13 2.35455e-12 
0 0 0 0 0 0 0 0 0 
0 0 0 0 0 0 0 0 0 
0 0 0 0 0 0 0 0 0 
0 0 0 0 0 0 0 0 0 
0 0 0 0 0 0 0 0 0 
0 0 0 0 0 0 0 0 0 
0 0 0 0 0 0 0 0 0 
0 0 0 0 0 0 0 0 0 
0 0 0 0 0 0 0 0 0 
0 0 0 0 0 0 0 0 0 
0 0 0 0 0 0 0 0 0 
0 0 0 0 0 0 0 0 0 
0 0 0 0 0 0 0 0 0 
0 0 0 0 0 0 0 0 0 
0 0 0 0 0 0 0 0 0 
0 0 0 0 0 0 0 0 0 
0 0 0 0 0 0 0 0 0 
0 0 0 0 0 0 0 0 0 
0 0 0 0 0 0 0 0 0 
0 0 0 0 0 0 0 0 0 
0 0 0 0 0 0 0 0 0 
0 0 0 0 0 0 0 0 0 
0 0 0 0 0 0 0 0 0 
0 0 0 0 0 0 0 0 0 
0 0 0 0 0 0 0 0 0 
0 0 0 0 0 0 0 0 0 
0 0 0 0 0 0 0 0 0 
0 0 0 0 0 0 0 0 0 
0 0 0 0 0 0 0 0 0 
0 0 0 0 0 0 0 0 0 
0 0 0 0 0 0 0 0 0 
0 0 0 0 0 0 0 0 0 
0 0 0 0 0 0 0 0 0 
0 0 0 0 0 0 0 0 0 
0 0 0 0 0 0 0 0 0 
0 0 0 0 0 0 0 0 0 
0 0 0 0 0 0 0 0 0 
0 0 0 0 0 0 0 0 0 
0 0 0 0 0 0 0 0 0 
0 0 0 0 0 0 0 0 0 
0 0 0 0 0 0 0 0 0 
0 0 0 0 0 0 0 0 0 
0 0 0 0 0 0 0 0 0 
0 0 0 0 0 0 0 0 0 
0 0 0 0 0 0 0 0 0 
0 0 0 0 0 0 0 0 0 
0 0 0 0 0 0 0 0 0 
0 0 0 0 0 0 0 0 0 
0 0 0 0 0 0 0 0 0 
0 0 0 0 0 0 0 0 0 
0 0 0 0 0 0 0 0 0 
0 0 0 0 0 0 0 0 0 
0 0 0 0 0 0 0 0 0 
0 0 0 0 0 0 0 0 0 
0 0 0 0 0 0 0 0 0 
0 0 0 0 0 0 0 0 0 
0 0 0 0 0 0 0 0 0 
0 0 0 0 0 0 0 0 0 
0 0 0 0 0 0 0 0 0 
0 0 0 0 0 0 0 0 0 
0 0 0 0 0 0 0 0 0 
0 0 0 4.29887e-13 0 0 0 0 0 
0 0 0 0 0 0 0 0 0 
0 0 0 0 0 0 0 0 0 
0 0 0 0 0 0 0 0 0 
0 0 0 0 0 0 0 0 0 
0 0 0 0 0 0 0 0 0 
0 0 0 0 0 0 0 0 0 
0 0 0 0 0 0 0 0 0 
0 0 0 0 0 0 0 0 0 
0 0 0 0 0 0 0 0 0 
0 0 0 0 0 0 0 0 0 
0 0 0 0 0 0 0 0 0 
0 0 0 0 0 0 0 0 0 
0 0 0 0 0 0 0 0 0 
0 0 0 0 0 0 0 0 0 
0 0 0 0 0 0 0 0 0 
0 0 0 0 0 0 0 0 0 
0 0 0 0 0 0 0 0 0 
0 0 0 0 0 0 0 0 0 
0 0 0 0 0 0 0 0 0 
0 0 0 0 0 0 0 0 0 
0 0 0 0 0 0 0 0 0 
0 0 0 0 0 0 0 0 0 
0 0 0 0 0 0 0 0 0 
0 0 0 0 0 0 0 0 0 
0 0 0 0 0 0 0 0 0 
0 0 0 0 0 0 0 0 0 
0 0 0 0 0 0 0 0 0 
0 0 0 0 0 0 0 0 0 
0 0 0 0 0 0 0 0 0 
0 0 0 0 0 0 0 0 0 
0 0 0 0 0 0 0 0 0 
6.20576e-13 0 0 0 0 0 0 0 0 
0 0 0 0 0 0 0 0 0 
0 0 0 0 0 0 0 0 0 
0 0 0 0 0 0 0 0 0 
0 0 0 0 0 0 0 0 0 
0 0 0 0 0 0 0 0 0 
0 0 0 0 0 0 0 0 0 
0 0 0 0 0 0 0 0 0 
0 0 0 0 0 0 0 0 0 
0 0 0 0 0 0 0 0 0 
0 0 0 0 0 0 0 0 0 
0 0 0 0 0 0 0 0 0 
0 0 0 0 0 0 0 0 0 
0 0 0 0 0 0 0 0 0 
0 0 0 0 0 0 0 0 0 
0 0 0 0 0 0 0 0 0 
0 0 0 0 0 0 0 0 0 
0 0 0 0 0 0 0 0 0 
0 0 0 0 0 0 0 0 0 
0 0 0 0 0 0 0 0 0 
0 0 0 0 0 0 0 0 0 
0 0 0 0 0 0 0 0 0 
0 0 0 0 0 0 0 0 0 
0 0 0 0 0 0 0 0 0 
0 0 0 0 0 0 0 0 0 
0 0 0 0 0 0 0 0 0 
0 0 0 0 0 0 0 0 0 
0 0 0 0 0 0 0 0 0 
0 0 0 0 0 0 0 0 0 
0 0 0 0 0 0 0 0 0 
0 0 0 0 0 0 0 0 0 
0 0 0 0 0 0 0 0 0 
0 0 0 0 0 0 0 0 0 
0 0 0 0 0 0 0 0 0 
0 0 0 0 0 0 0 0 0 
0 0 0 0 0 0 0 0 0 
0 0 0 0 0 0 0 0 0 
0 0 0 0 0 0 0 0 0 
0 0 0 0 0 0 0 0 0 
0 0 0 0 0 0 0 0 0 
0 0 0 0 0 0 0 0 0 
0 0 0 0 0 0 0 0 0 
0 0 0 0 0 0 0 0 0 
0 0 0 0 0 0 0 0 0 
0 0 0 0 0 0 0 0 0 
0 0 0 0 0 0 0 0 0 
0 0 0 0 0 0 0 0 0 
0 0 0 0 0 0 0 0 0 
0 0 0 0 0 0 0 0 0 
0 0 0 0 0 0 0 0 0 
0 0 0 0 0 0 0 0 0 
0 0 0 0 0 0 0 0 0 
0 0 0 0 0 0 0 0 0 
0 0 0 0 0 0 0 0 0 
0 0 0 0 0 0 0 0 0 
0 0 0 0 0 0 0 0 0 
0 0 0 0 0 0 0 0 0 
0 0 0 0 0 0 0 0 0 
0 0 0 0 0 0 0 0 0 
0 0 0 0 0 0 0 0 0 
0 0 0 0 0 0 0 0 0 
0 0 0 0 0 0 0 0 0 
0 0 0 0 0 0 0 0 0 
0 0 0 0 0 0 0 0 0 
0 0 0 0 0 0 0 0 0 
0 0 0 0 0 0 0 0 0 
0 0 0 0 0 0 0 0 0 
0 0 0 0 0 5.20987e-13 0 0 0 
0 0 0 0 0 0 0 0 0 
0 0 0 0 0 0 0 0 0 
0 0 0 0 0 0 3.03084e-12 0 0 
0 0 0 0 0 0 0 0 0 
0 0 0 0 0 0 0 0 0 
0 0 0 0 0 0 0 0 0 
0 0 0 0 0 0 0 0 0 
0 0 0 0 0 0 0 0 0 
0 0 0 0 0 0 0 0 0 
0 0 0 0 0 0 0 0 0 
0 0 0 0 0 0 0 0 0 
0 0 0 0 0 0 0 0 0 
0 0 0 0 0 0 0 0 0 
0 0 0 0 0 0 0 0 0 
0 0 0 0 0 0 0 0 0 
0 0 0 0 0 0 0 0 0 
0 0 0 2.3952e-12 0 0 0 0 0 
0 0 0 0 0 0 0 0 0 
0 0 0 0 0 0 0 0 0 
0 0 0 0 0 0 0 0 0 
0 0 0 0 0 0 0 0 0 
0 0 0 0 0 0 0 0 0 
0 0 0 0 0 0 0 0 0 
0 0 0 0 0 0 0 0 0 
0 0 0 0 0 0 0 0 0 
0 0 0 0 0 0 0 0 0 
0 0 0 0 0 0 0 0 0 
0 0 0 0 0 0 0 0 0 
0 0 0 0 0 0 0 0 0 
0 0 0 0 0 0 0 0 0 
0 0 0 0 0 0 0 0 0 
0 0 0 0 0 0 0 0 0 
0 0 0 0 0 0 0 0 0 
0 0 0 0 0 0 0 0 0 
0 0 0 0 0 0 0 0 0 
0 0 0 0 0 0 0 0 0 
0 0 0 0 0 0 0 0 0 
0 0 0 0 0 0 0 0 0 
0 0 0 0 0 0 0 0 0 
0 0 0 0 0 0 0 0 0 
0 0 0 0 0 0 0 0 0 
0 0 0 0 0 0 0 0 0 
0 0 0 0 0 0 0 0 0 
0 0 0 0 0 0 0 0 0 
0 0 0 0 0 0 0 0 0 
0 0 0 0 0 0 0 0 0 
0 0 0 0 0 0 0 0 0 
0 0 0 0 0 0 0 0 0 
0 0 0 0 0 0 0 0 0 
0 0 0 0 0 0 0 0 0 
0 0 0 0 0 0 0 0 0 
0 0 0 0 0 0 0 0 0 
0 0 0 0 0 0 0 0 0 
0 0 0 0 0 0 0 0 0 
0 0 0 0 0 0 0 0 0 
0 0 0 0 0 0 0 0 0 
0 0 0 0 0 0 0 0 0 
0 0 0 0 0 0 0 0 0 
0 0 0 0 0 0 0 0 0 
0 0 0 0 0 0 0 0 0 
0 0 0 0 0 0 0 0 0 
0 0 0 0 0 0 0 0 0 
0 0 0 0 0 0 0 0 0 
0 0 0 0 0 0 0 0 0 
0 0 0 0 0 0 0 0 0 
0 0 0 0 0 0 0 0 0 
0 0 0 0 0 0 0 0 0 
0 0 0 0 0 0 0 0 0 
0 0 0 0 0 0 0 0 0 
0 0 0 0 0 0 0 0 0 
0 0 0 0 0 0 0 0 0 
0 0 0 0 0 0 0 0 0 
0 0 0 0 0 0 0 0 0 
0 0 0 0 0 0 0 0 0 
0 0 0 0 0 0 0 0 0 
0 0 0 0 0 0 0 0 0 
0 0 0 0 0 0 0 0 0 
0 0 0 0 0 0 0 0 0 
0 0 0 0 0 0 0 0 0 
0 0 0 0 0 0 0 0 0 
0 0 0 0 0 0 0 0 0 
0 0 0 0 0 0 0 0 0 
0 0 0 0 0 0 0 0 0 
0 0 0 0 0 0 0 0 0 
0 0 0 0 0 0 0 0 0 
0 0 0 0 0 0 0 0 0 
0 0 0 0 0 0 0 0 0 
0 0 0 0 0 0 0 0 0 
0 0 0 0 0 0 0 0 0 
0 0 0 0 0 0 0 0 0 
0 0 0 0 0 0 0 0 0 
0 0 0 0 0 0 0 0 0 
0 0 0 0 0 0 0 0 0 
0 0 0 0 0 0 0 0 0 
0 0 0 0 0 0 0 0 0 
0 0 0 0 0 0 0 0 0 
0 0 0 0 0 0 0 0 0 
0 0 0 0 0 0 0 0 0 
0 0 0 0 0 0 0 0 0 
0 0 0 0 0 0 0 0 0 
0 0 0 0 0 0 0 0 0 
0 0 0 0 0 0 0 0 0 
0 2.91249e-13 0 0 0 0 0 0 0 
0 0 0 0 0 0 0 0 0 
0 0 0 0 0 0 0 0 0 
0 0 0 0 0 0 0 0 0 
0 0 0 0 0 0 0 0 0 
0 0 0 0 0 0 0 0 0 
0 0 0 0 0 0 0 0 0 
0 0 0 0 0 0 0 0 0 
0 0 0 0 0 0 0 0 0 
0 0 0 0 0 0 0 0 0 
0 0 0 0 0 0 0 0 0 
0 0 0 0 0 0 0 0 0 
0 0 0 0 0 0 0 0 0 
0 0 0 0 0 0 0 0 0 
0 0 0 0 0 0 0 0 0 
0 0 0 0 0 0 0 0 0 
0 0 0 0 0 0 0 0 0 
0 0 0 0 0 0 0 0 0 
0 0 0 0 0 0 0 0 0 
0 0 0 0 0 0 0 0 0 
0 0 0 0 0 0 0 0 0 
0 0 0 0 0 0 0 0 0 
0 0 0 0 0 0 0 0 0 
0 0 0 0 0 0 0 0 0 
0 0 0 0 0 0 0 0 0 
0 0 0 0 0 0 0 0 0 
0 0 0 0 0 0 0 0 0 
0 0 0 0 0 0 0 0 0 
0 0 0 0 0 0 0 0 0 
0 0 0 0 0 0 0 0 0 
0 0 0 0 0 0 0 0 0 
0 0 0 0 0 0 0 0 0 
0 0 0 0 0 0 0 0 0 
0 0 0 0 0 0 0 0 0 
0 0 0 0 0 0 0 0 0 
0 0 0 0 0 0 0 0 0 
0 0 0 0 0 0 0 0 0 
1.49161e-12 0 0 0 0 0 0 0 0 
0 0 0 0 0 0 0 0 0 
0 0 0 0 0 0 0 0 0 
0 0 0 0 0 0 0 0 0 
0 0 0 0 0 0 0 0 0 
0 0 0 0 0 0 0 0 0 
0 0 0 0 0 0 0 0 0 
0 0 0 0 0 0 0 0 0 
0 0 0 0 0 0 0 0 0 
0 0 0 0 0 0 0 0 0 
0 0 0 0 0 0 0 0 0 
0 0 0 0 0 0 0 0 0 
0 0 0 0 0 0 0 0 0 
0 0 0 0 0 0 0 0 0 
0 0 0 0 0 0 0 0 0 
0 0 0 0 0 0 0 0 0 
0 0 0 0 0 0 0 0 0 
0 0 0 0 0 0 0 0 0 
0 0 0 0 0 0 0 0 0 
0 0 0 0 0 0 0 0 0 
0 0 0 0 0 0 0 0 0 
0 1.774e-12 0 0 0 0 0 0 0 
0 0 0 0 0 0 0 0 0 
0 0 0 0 0 0 0 0 0 
0 0 0 0 0 0 0 0 0 
0 0 0 0 1.93225e-12 0 0 0 0 
0 0 0 0 0 0 0 0 0 
0 0 0 0 0 0 0 0 0 
0 0 0 0 0 0 0 0 0 
0 0 0 0 0 0 0 0 0 
0 0 0 3.70828e-12 0 0 0 0 0 
0 0 0 0 0 0 0 0 0 
0 0 0 0 0 0 0 0 0 
0 0 0 0 0 0 0 0 0 
0 0 0 0 0 0 0 0 0 
0 0 0 0 0 0 0 0 0 
0 0 0 0 0 0 0 0 0 
0 0 0 0 0 0 0 0 0 
0 0 0 0 0 0 0 0 0 
0 0 0 0 0 0 0 0 0 
0 0 0 0 0 0 0 0 0 
0 0 0 0 0 0 0 0 0 
0 0 0 0 0 0 0 0 0 
0 0 0 0 0 0 0 0 0 
0 0 0 0 0 0 0 0 0 
0 0 0 0 0 0 0 0 0 
0 0 0 0 0 0 0 0 0 
0 0 0 0 0 0 0 0 0 
0 0 0 0 0 0 0 0 8.0536e-12 
0 0 0 0 0 0 0 0 0 
0 0 0 0 0 0 0 0 0 
0 0 0 3.05686e-12 0 0 0 0 0 
0 0 0 0 0 0 0 0 0 
0 0 0 7.15158e-12 0 0 0 0 0 
0 0 0 0 0 0 0 0 0 
0 0 0 0 0 0 0 0 0 
0 0 3.90338e-12 0 0 0 0 0 0 
0 0 0 0 0 0 0 0 0 
0 0 0 0 0 0 0 0 0 
0 0 0 0 0 0 0 0 0 
0 0 0 0 0 0 0 0 0 
0 0 0 0 0 0 0 0 0 
0 0 0 0 0 0 0 0 0 
0 0 0 0 0 0 0 0 0 
0 0 0 0 0 0 0 0 0 
0 0 0 0 0 0 0 0 0 
0 0 0 0 0 0 0 0 0 
0 0 0 0 0 0 0 0 0 
0 0 0 0 0 0 0 0 0 
0 0 0 0 0 0 0 0 0 
0 0 0 0 0 0 0 0 0 
0 0 0 0 0 0 0 0 0 
0 0 0 0 0 0 0 0 0 
0 0 0 0 0 0 0 0 0 
0 0 0 0 0 0 0 0 0 
0 0 0 0 0 1.45795e-12 0 0 0 
0 0 0 0 0 0 0 0 0 
0 0 0 0 0 0 0 0 0 
0 0 0 0 0 0 0 0 2.1204e-12 
0 0 0 0 0 0 0 0 0 
0 0 0 0 0 0 0 0 0 
0 0 0 0 0 0 0 5.60196e-12 0 
0 0 0 0 0 0 0 0 0 
0 0 0 0 0 0 0 0 0 
0 0 0 0 0 0 0 0 0 
0 0 0 0 0 3.89666e-12 0 0 0 
0 0 0 0 0 0 0 0 0 
0 0 0 0 0 0 0 0 0 
0 0 0 0 0 0 0 0 0 
0 0 0 0 0 0 0 0 0 
0 0 0 0 0 0 0 0 0 
0 0 0 0 0 0 0 0 0 
0 0 0 0 0 0 0 0 0 
0 0 0 0 0 0 0 0 0 
0 0 0 0 0 0 0 0 0 
0 0 0 0 0 0 0 0 0 
0 0 0 0 0 0 0 0 0 
0 0 0 0 0 0 0 0 0 
0 0 0 0 0 0 0 0 0 
0 0 0 0 0 0 0 0 0 
0 0 0 0 0 0 0 0 0 
0 0 0 0 0 0 0 0 0 
0 0 0 0 0 0 0 0 0 
0 0 0 0 0 0 0 0 0 
1.79888e-11 0 0 0 2.8477e-11 1.41353e-11 0 0 0 
0 0 0 0 0 0 0 0 0 
0 1.54487e-11 0 0 0 0 0 0 1.99274e-11 
0 0 0 0 0 0 0 0 0 
0 0 0 0 0 0 0 0 0 
0 0 0 0 0 0 0 0 0 
0 0 0 0 0 0 0 0 0 
0 0 0 0 0 0 0 0 0 
0 0 0 0 0 0 0 0 0 
0 0 0 0 0 0 0 0 0 
0 0 0 0 0 0 0 0 0 
0 0 0 0 0 0 0 0 0 
0 0 0 0 0 0 0 0 0 
0 0 0 0 0 0 0 0 0 
0 0 0 0 0 0 0 0 0 
0 7.8234e-13 0 0 0 0 0 0 0 
0 0 0 0 0 0 0 0 0 
0 0 0 0 0 0 0 0 0 
0 0 0 0 0 0 0 0 0 
0 0 0 0 0 0 0 0 0 
0 0 0 0 0 0 0 0 0 
0 0 0 0 0 0 0 0 0 
0 0 0 0 0 0 0 0 0 
0 0 0 0 0 3.75254e-12 0 0 0 
0 0 0 0 0 0 0 0 0 
0 0 0 0 0 0 0 0 0 
0 0 3.97848e-12 0 0 0 0 0 0 
0 0 0 0 0 1.09701e-11 1.50439e-11 0 0 
0 0 0 0 0 0 0 0 0 
0 0 0 0 0 0 0 0 0 
2.99904e-13 0 0 0 0 0 0 0 0 
8.24239e-12 0 0 0 0 2.42726e-11 0 0 0 
0 0 0 0 0 1.47464e-11 0 0 0 
0 0 0 0 0 0 0 0 0 
0 0 0 0 0 0 0 0 0 
0 0 0 0 0 0 0 0 0 
0 0 0 0 0 7.74494e-12 0 1.57656e-11 0 
0 0 0 0 0 0 0 0 0 
0 0 0 0 0 0 0 0 0 
0 0 0 0 0 0 0 0 0 
0 0 0 0 0 0 0 0 0 
0 0 0 0 0 0 0 0 0 
0 0 0 0 0 0 0 0 0 
0 0 0 0 0 0 0 2.92735e-13 0 
0 0 0 0 0 0 0 0 0 
0 0 0 0 0 0 0 0 0 
0 0 0 0 0 0 0 0 0 
0 0 0 0 0 0 0 0 0 
0 0 0 0 0 0 0 0 0 
0 0 0 0 0 0 0 0 0 
0 0 0 0 0 0 0 0 0 
0 0 0 0 0 0 0 0 0 
0 0 0 0 0 0 0 0 0 
0 0 0 0 0 0 0 0 0 
0 0 0 0 0 0 0 0 0 
0 0 0 0 0 1.28954e-11 0 2.40216e-11 0 
0 0 0 0 0 0 0 0 0 
0 0 0 0 2.63622e-11 0 2.76009e-11 0 0 
8.07444e-12 0 0 0 0 0 0 0 0 
2.90278e-11 0 0 0 0 0 0 0 0 
0 1.45692e-11 2.35436e-11 0 0 0 0 0 0 
0 0 0 0 0 0 0 0 0 
0 0 0 0 3.56725e-12 0 0 0 0 
0 0 0 0 0 0 7.56521e-12 0 0 
0 0 0 1.56267e-12 0 0 0 0 0 
0 0 0 0 0 0 0 0 0 
0 0 0 0 0 0 0 0 0 
0 0 0 0 0 0 0 0 0 
0 0 0 0 0 0 1.25436e-12 0 0 
0 0 0 0 0 0 0 0 0 
0 0 0 0 0 0 0 0 0 
0 0 9.4475e-12 0 0 0 0 0 0 
0 0 0 0 0 0 0 0 0 
0 0 0 0 0 0 0 0 0 
0 0 0 0 0 0 0 0 0 
0 0 0 0 0 0 0 0 0 
0 0 0 0 0 0 0 0 0 
0 0 0 0 0 0 0 0 0 
0 0 0 0 1.40536e-12 0 0 0 0 
0 0 0 0 0 0 0 0 0 
0 0 0 0 0 0 0 0 0 
0 0 1.14646e-11 1.1884e-11 0 0 0 7.6538e-12 0 
0 0 0 0 0 0 0 0 0 
0 2.16909e-11 0 7.47285e-12 0 0 0 0 0 
0 0 1.0607e-11 0 0 0 0 0 0 
0 0 0 0 0 0 0 0 0 
0 0 0 0 0 0 0 6.16543e-12 0 
0 0 0 0 3.11365e-12 0 0 0 0 
0 3.02997e-11 0 0 0 0 0 0 0 
8.24263e-12 0 0 0 0 0 0 0 0 
0 0 0 0 0 0 0 0 0 
7.8911e-12 0 0 0 0 0 0 6.93278e-12 0 
0 0 0 0 0 0 1.67192e-11 0 0 
0 0 0 0 0 0 0 0 0 
0 0 0 0 0 0 0 0 0 
0 1.21869e-13 0 0 0 0 0 0 0 
0 0 0 0 0 0 0 0 0 
0 0 0 0 0 0 0 0 0 
0 0 0 0 0 0 0 0 8.58682e-12 
0 0 0 1.89682e-11 0 0 0 0 0 
0 0 0 0 0 0 0 0 0 
0 0 0 0 0 0 0 0 0 
0 0 0 0 0 0 0 0 0 
0 0 0 0 0 0 0 0 0 
0 0 0 0 0 0 0 0 0 
0 0 0 0 0 0 0 0 0 
0 0 0 0 0 0 0 0 0 
0 0 0 0 0 0 0 0 0 
0 0 0 0 0 0 0 0 0 
0 0 0 0 0 0 0 0 0 
0 0 1.4691e-11 1.72052e-11 0 1.90663e-11 0 0 0 
3.71042e-11 0 3.51598e-11 0 0 0 0 0 0 
2.53243e-11 0 0 0 0 0 0 0 0 
0 2.85263e-11 0 0 0 0 0 5.51435e-11 0 
0 0 0 0 0 0 0 1.60226e-12 0 
0 0 0 0 0 0 0 0 0 
4.1182e-11 0 0 9.46959e-12 0 1.18142e-11 0 0 0 
0 0 0 0 0 0 1.06524e-11 0 0 
0 0 0 0 0 0 0 0 0 
2.8418e-11 0 0 0 0 0 0 0 0 
0 0 0 0 0 0 0 0 0 
0 0 0 1.47921e-11 0 0 1.66735e-11 0 0 
0 0 0 0 0 0 0 0 0 
0 0 0 0 0 0 0 0 0 
0 0 0 0 0 0 0 0 0 
0 0 0 0 0 0 0 0 0 
0 0 0 4.64137e-12 0 0 0 0 0 
0 0 0 0 0 0 0 0 0 
7.6327e-12 0 0 0 0 0 0 0 0 
0 0 0 0 0 0 0 0 0 
0 0 0 0 0 0 0 0 0 
0 0 0 0 0 0 0 0 0 
0 0 0 0 0 0 0 0 0 
0 0 0 0 0 0 0 0 0 
0 0 0 0 0 0 0 0 0 
0 0 0 0 0 0 9.96065e-12 0 0 
2.89876e-11 0 3.12785e-11 0 0 0 0 0 0 
0 0 0 0 0 0 0 0 0 
0 0 0 0 1.79714e-11 0 2.71925e-11 0 0 
2.8052e-11 2.84253e-11 0 0 0 3.62111e-11 0 0 0 
0 0 0 0 0 0 0 0 0 
0 0 0 1.81145e-11 7.43915e-11 0 0 2.96551e-11 0 
4.26375e-11 0 0 0 0 0 0 0 0 
0 2.92682e-11 0 4.99187e-11 0 0 0 0 0 
0 0 0 0 1.27454e-11 0 0 0 1.23054e-11 
0 0 0 0 0 0 0 0 0 
0 0 0 0 0 0 0 0 0 
0 0 0 5.86253e-11 2.00527e-11 0 0 0 0 
0 0 0 0 7.4906e-12 0 0 0 0 
0 1.40564e-12 0 0 0 0 0 0 0 
0 0 1.25321e-11 0 0 0 0 0 0 
0 0 0 0 0 0 0 0 0 
0 0 0 0 0 0 0 0 0 
0 0 0 0 0 0 0 0 0 
0 0 0 0 0 0 0 0 3.29658e-11 
0 0 0 0 0 0 0 0 0 
0 0 0 0 0 0 0 0 0 
0 0 0 0 0 0 0 0 0 
0 0 0 0 0 0 0 0 0 
0 0 0 0 0 0 0 0 0 
0 0 0 0 0 0 0 0 0 
0 0 0 0 0 0 0 0 0 
0 0 0 0 0 0 0 0 0 
0 0 0 0 0 0 0 0 0 
3.08188e-11 0 0 0 5.04188e-11 0 0 0 0 
0 0 0 0 0 0 0 0 0 
0 0 1.2875e-11 2.83571e-11 0 0 0 0 0 
0 0 0 0 2.10191e-11 0 0 0 0 
0 0 0 0 0 7.66246e-11 0 0 2.47225e-12 
2.40116e-11 0 6.35701e-11 1.02175e-10 0 0 0 0 0 
0 0 0 0 0 0 0 0 0 
4.73812e-11 4.5554e-11 0 0 6.19724e-11 0 0 0 0 
3.72483e-11 0 0 0 0 0 0 0 0 
0 0 0 0 2.74946e-11 0 0 0 0 
0 8.55036e-12 0 0 0 0 0 0 0 
0 0 0 5.84661e-13 4.78164e-11 0 0 1.1884e-11 0 
1.16508e-11 0 0 1.90215e-11 0 0 0 0 0 
0 0 0 0 0 0 0 0 0 
0 9.07878e-12 4.43366e-12 0 0 0 0 0 0 
0 2.05159e-11 0 0 0 0 0 0 0 
0 0 0 0 0 0 0 0 0 
0 0 0 0 0 0 0 9.97499e-12 0 
0 1.5522e-11 0 0 0 0 0 0 0 
0 0 0 0 6.89283e-12 0 0 0 0 
0 0 0 0 0 0 0 0 0 
0 0 0 0 0 0 0 0 0 
0 0 0 0 0 0 0 0 0 
0 0 0 0 0 0 0 0 0 
0 0 0 0 0 0 0 0 0 
0 0 0 0 0 0 0 0 0 
0 0 0 0 0 1.54236e-11 0 0 0 
0 3.55626e-12 0 0 1.15299e-11 0 0 0 0 
0 0 3.88e-11 0 0 0 0 5.02735e-11 0 
0 0 0 0 0 1.78851e-11 4.32836e-13 0 0 
0 0 0 0 8.62081e-11 0 2.05735e-10 0 0 
0 0 5.28514e-11 3.42196e-11 2.00659e-11 0 0 2.67712e-11 0 
0 0 0 0 0 1.14524e-11 0 0 8.02759e-11 
0 0 0 0 0 0 8.08291e-11 0 0 
0 0 0 0 7.39496e-11 0 0 5.69227e-11 0 
0 0 0 0 0 2.35504e-11 0 0 0 
3.81633e-11 0 0 0 0 0 2.3221e-11 0 0 
0 0 0 0 0 0 0 0 4.54924e-11 
0 0 0 0 8.43622e-11 0 1.33893e-10 0 0 
0 3.15785e-11 0 0 0 0 3.174e-11 0 0 
5.88986e-11 0 4.68712e-11 0 0 2.56019e-11 0 0 0 
0 0 0 0 1.97306e-11 0 0 3.34493e-11 0 
0 0 2.04548e-11 2.98487e-11 0 0 0 0 0 
0 0 0 0 0 0 0 0 0 
0 0 0 0 0 0 0 0 0 
0 0 0 0 0 0 0 0 0 
0 0 2.05662e-11 6.44518e-13 0 0 0 3.19854e-11 0 
0 0 0 0 0 0 0 0 0 
0 0 0 0 0 0 0 0 0 
0 0 0 0 0 0 0 0 0 
0 0 0 0 0 0 0 0 0 
0 0 0 0 0 0 0 0 0 
0 0 0 0 0 0 0 0 0 
0 0 0 0 0 0 0 3.44032e-11 0 
0 0 0 0 8.18731e-12 4.0801e-12 0 0 0 
0 0 0 0 0 4.50156e-11 0 0 0 
0 2.41391e-10 0 0 6.75775e-11 0 0 0 0 
4.34914e-12 0 0 1.46149e-11 0 0 0 0 0 
0 0 0 2.03732e-10 2.43288e-08 0 0 0 4.27127e-11 
0 2.87322e-11 0 0 0 0 0 0 0 
0 0 0 0 2.44905e-10 0 0 0 3.48375e-11 
0 1.60725e-11 0 2.58692e-11 0 0 0 0 5.85207e-11 
0 0 6.59912e-12 0 0 0 0 0 0 
0 0 0 0 0 0 0 0 3.82998e-11 
0 0 2.17968e-11 0 1.16308e-11 0 0 0 0 
0 0 4.39499e-11 5.23093e-13 0 0 0 0 0 
0 0 6.43466e-11 6.89536e-11 0 0 0 0 0 
1.22188e-10 1.06131e-11 0 0 0 1.00375e-10 5.57637e-11 0 0 
0 0 0 0 0 0 0 0 0 
0 2.07144e-11 0 0 0 0 0 0 0 
2.51111e-11 0 0 0 0 2.45014e-11 0 0 0 
0 0 0 0 0 0 0 0 0 
0 0 0 5.5983e-12 0 0 0 1.08539e-11 0 
0 0 2.05567e-11 0 0 3.4662e-11 0 0 0 
0 0 0 6.52223e-11 0 3.71713e-11 0 0 0 
0 0 0 0 0 0 9.57838e-13 0 0 
0 0 0 0 0 0 0 0 0 
0 0 0 0 0 0 0 0 0 
0 0 0 0 0 0 0 0 0 
0 0 0 0 0 0 0 0 0 
0 0 0 0 0 0 0 0 0 
0 0 0 0 1.63063e-11 1.72457e-11 0 0 5.41588e-11 
0 0 0 4.39744e-11 6.66251e-12 2.80603e-11 0 0 0 
0 0 0 0 0 0 0 0 0 
0 3.25626e-11 0 0 0 2.40074e-11 7.08116e-11 0 6.71526e-12 
0 1.54767e-11 0 0 6.07056e-12 1.94438e-11 5.03106e-11 0 0 
0 0 0 1.83259e-10 0 0 4.51593e-11 0 1.92186e-11 
0 0 0 0 0 0 0 1.79704e-11 5.08045e-11 
2.86418e-11 1.34415e-10 2.54861e-08 0 0 0 0 0 0 
2.61645e-11 0 0 0 2.64891e-08 0 0 1.29101e-10 0 
0 0 5.89759e-11 0 2.28611e-11 1.0163e-10 1.35201e-10 0 0 
0 0 0 4.91784e-11 2.59447e-11 1.59341e-11 0 0 0 
0 0 0 2.20392e-11 0 0 0 0 0 
7.74955e-12 0 1.1209e-10 5.51571e-11 0 0 0 0 0 
0 0 0 2.52228e-08 0 0 0 2.28281e-11 0 
9.08737e-11 0 0 1.81512e-10 5.70602e-11 0 0 6.30888e-11 6.95596e-11 
0 0 3.22388e-11 0 0 3.66164e-11 0 0 0 
0 4.4011e-11 0 0 2.1981e-11 0 0 0 0 
0 0 0 0 0 0 0 2.94749e-11 0 
0 2.73498e-13 0 0 0 0 0 0 0 
0 0 0 0 0 0 7.27297e-12 0 0 
0 0 0 0 0 0 0 0 2.50089e-12 
0 0 0 0 0 0 0 0 0 
0 0 1.21563e-11 0 0 0 0 0 0 
0 0 0 0 0 0 0 0 0 
0 0 0 0 0 0 0 0 0 
0 0 0 0 0 0 0 0 0 
0 0 0 0 0 0 0 0 0 
0 0 0 0 0 0 0 0 0 
1.49879e-11 0 0 0 0 7.66792e-11 8.42262e-11 0 0 
0 2.49046e-11 0 0 0 0 0 0 0 
0 0 0 0 0 1.02835e-11 0 0 0 
0 0 0 0 0 0 4.03663e-11 0 0 
0 0 0 0 9.1682e-12 0 8.11169e-11 8.3734e-11 0 
0 0 1.0014e-10 7.86369e-11 2.38124e-12 0 0 0 0 
0 0 0 0 1.45565e-12 4.27315e-11 0 0 0 
1.3258e-10 0 0 0 1.4159e-10 0 0 0 0 
2.94351e-11 0 1.76468e-10 0 0 0 0 0 5.75562e-11 
2.64303e-11 0 7.3409e-11 2.12234e-11 0 0 2.46587e-08 0 0 
3.42971e-11 0 0 0 0 1.70914e-11 0 0 0 
0 0 5.10401e-11 0 0 8.72467e-11 6.52512e-11 0 0 
1.04876e-10 7.56979e-11 2.82164e-11 0 7.32319e-11 0 0 0 1.39288e-10 
0 0 0 3.65464e-11 0 1.7352e-10 0 0 0 
1.09338e-10 0 0 0 5.06495e-11 6.26723e-11 0 6.58617e-12 0 
0 0 1.12554e-11 2.84136e-11 0 0 0 0 0 
0 0 0 0 0 2.4094e-11 0 7.94496e-11 0 
0 0 5.66838e-11 0 7.26468e-11 0 0 0 0 
0 0 0 0 0 0 0 0 0 
0 7.74806e-12 0 0 0 0 0 0 0 
0 0 2.14231e-11 9.35017e-11 1.44859e-11 0 0 0 0 
0 5.6954e-11 0 3.41594e-11 2.73875e-11 0 0 0 1.29387e-11 
0 1.61921e-11 0 0 0 0 0 0 0 
0 0 0 0 0 0 0 0 0 
0 0 0 0 0 0 0 0 0 
0 0 0 0 0 0 0 0 0 
0 0 0 0 0 0 0 0 0 
0 0 0 0 0 0 0 0 0 
0 8.75647e-12 0 5.59482e-11 0 0 0 0 0 
0 0 0 3.94052e-11 4.84343e-11 0 0 0 0 
0 2.63504e-08 0 2.43529e-10 0 0 1.11996e-11 0 0 
0 1.19597e-10 8.92556e-12 0 0 0 0 0 4.40825e-11 
2.94034e-11 0 0 0 0 2.91658e-11 6.61159e-11 3.65234e-13 0 
0 0 0 0 9.42414e-12 0 0 0 0 
0 0 0 0 0 0 4.85147e-11 0 0 
0 0 8.97281e-11 0 2.68249e-11 0 0 0 0 
0 0 0 0 0 0 5.49914e-11 1.17205e-11 0 
0 1.22759e-10 0 0 0 0 3.60931e-10 0 0 
0 0 0 0 0 0 0 1.55389e-11 0 
0 0 0 0 0 2.1968e-10 0 0 5.43824e-11 
0 0 0 3.72607e-11 5.20141e-11 2.46072e-11 0 0 0 
1.27762e-10 0 0 0 0 2.90667e-10 2.73342e-08 2.57511e-10 0 
0 0 1.17973e-10 0 0 9.4669e-11 0 0 0 
2.56768e-12 0 0 0 0 9.14535e-12 0 0 0 
0 5.51454e-11 1.22921e-10 0 0 0 0 4.28198e-11 6.35864e-11 
0 0 0 0 0 0 0 7.92303e-12 0 
0 0 0 0 7.23488e-12 0 0 0 0 
0 0 0 0 3.99466e-11 0 0 0 0 
0 0 7.15112e-11 0 0 2.36136e-10 0 0 0 
0 0 0 5.39149e-11 0 0 0 0 0 
0 0 8.80805e-12 0 0 6.01972e-12 0 0 0 
0 0 0 0 0 0 0 0 0 
0 0 0 0 0 0 0 0 0 
0 0 0 0 0 0 0 0 0 
0 0 0 0 0 0 0 0 0 
0 0 7.32468e-12 0 0 0 0 4.17467e-11 0 
0 6.90483e-11 0 0 2.47356e-08 0 3.7923e-11 0 0 
4.20971e-11 0 3.70007e-11 0 0 0 0 0 0 
3.57209e-10 0 0 0 0 2.56696e-11 1.39285e-10 0 0 
1.561e-10 0 0 0 8.46316e-11 1.04546e-11 0 0 0 
0 0 4.13906e-11 1.32635e-11 0 0 3.77192e-11 0 0 
0 0 0 1.86052e-11 0 2.54478e-11 0 2.03632e-11 0 
0 0 0 0 0 2.42651e-10 2.05137e-10 0 0 
0 2.74079e-11 6.51821e-11 9.55141e-11 0 0 1.61278e-10 0 0 
3.83251e-11 0 0 0 0 0 1.01526e-10 9.76267e-11 0 
1.39027e-10 0 1.5473e-10 0 0 1.04206e-10 0 5.98626e-11 0 
0 0 1.5233e-11 0 0 0 0 0 0 
4.07648e-11 0 0 2.44716e-08 1.59225e-10 0 1.06372e-10 0 0 
0 0 0 0 0 1.00666e-10 0 0 1.49014e-10 
2.47706e-12 7.09285e-12 0 0 0 1.83466e-10 0 0 2.00008e-10 
0 0 0 0 0 0 1.66126e-10 0 3.65006e-11 
0 0 0 0 0 0 0 0 1.18806e-10 
0 0 0 6.67321e-11 1.52729e-10 0 0 0 0 
0 0 0 0 0 0 0 9.51613e-12 0 
0 0 0 0 0 0 0 0 5.14685e-12 
0 0 0 0 0 0 1.21005e-10 0 8.01969e-11 
0 0 0 2.49517e-08 0 0 0 0 6.8437e-11 
0 0 3.67644e-11 0 2.36096e-11 0 6.82031e-12 0 0 
0 8.25359e-12 0 0 0 0 0 0 0 
0 0 0 0 0 0 0 0 0 
0 0 0 0 0 0 0 0 0 
0 0 0 0 0 0 0 0 0 
0 0 0 0 0 0 0 0 0 
0 0 0 0 0 0 0 0 6.11276e-12 
0 1.80832e-10 8.2928e-11 1.19699e-10 3.43242e-11 0 0 0 0 
0 0 0 0 0 0 0 0 0 
2.14032e-10 0 0 3.03149e-12 0 1.07177e-10 1.41754e-10 4.95441e-11 0 
0 0 0 0 0 0 0 0 0 
2.95366e-11 0 0 0 0 3.48391e-11 0 7.54336e-11 0 
0 0 0 0 2.60004e-11 0 0 2.75291e-11 0 
6.06901e-11 0 0 0 1.54301e-10 0 5.03009e-11 0 0 
2.90524e-10 0 0 3.03189e-10 0 0 0 0 0 
0 0 0 3.80287e-11 0 7.00773e-11 0 0 2.26643e-10 
0 0 0 0 5.01368e-11 9.55912e-12 0 0 0 
0 0 0 0 0 0 0 0 2.37346e-11 
0 0 0 0 1.02608e-10 0 0 4.17991e-11 0 
6.85999e-11 0 0 2.66092e-11 0 0 0 0 9.39461e-11 
0 0 0 0 1.54308e-10 2.80356e-10 2.71303e-08 0 0 
0 1.44291e-11 0 0 0 6.41684e-11 0 0 0 
0 6.94159e-12 0 3.76649e-12 6.96369e-11 0 1.69569e-10 8.0935e-11 0 
0 0 0 0 0 4.6121e-11 0 0 0 
0 0 0 0 0 0 0 0 0 
0 0 4.31916e-12 0 0 0 1.35823e-11 0 0 
0 0 0 2.65954e-11 5.20144e-11 0 0 1.78274e-11 3.35242e-11 
0 0 0 0 0 5.09732e-12 0 5.90803e-11 4.09152e-11 
0 0 0 0 0 1.22739e-11 0 0 0 
0 1.30199e-11 0 0 0 0 0 0 0 
0 0 0 0 0 0 0 0 0 
0 0 0 0 0 0 0 0 0 
0 0 0 0 0 0 0 0 0 
0 0 0 0 0 0 0 0 0 
0 0 0 5.8521e-13 0 0 6.74574e-11 1.17499e-11 0 
1.07846e-10 2.36994e-11 3.48494e-11 0 0 0 5.47458e-12 0 1.89577e-10 
0 0 2.1157e-11 0 0 2.71927e-10 0 0 2.09552e-10 
0 0 0 0 2.68259e-08 0 0 4.02554e-11 0 
4.46249e-11 0 0 0 6.8676e-11 0 0 0 0 
0 0 0 0 0 0 0 0 0 
0 0 3.60869e-12 0 0 7.04876e-11 7.26956e-11 2.01197e-11 0 
0 0 0 0 0 0 0 0 0 
0 0 0 0 0 0 0 0 1.23404e-10 
0 1.35024e-11 1.79615e-10 1.02782e-10 1.78291e-12 0 1.87491e-11 0 0 
0 0 0 0 0 1.27016e-11 0 0 2.46947e-12 
1.06528e-12 0 0 9.70378e-11 0 0 0 0 2.99455e-11 
3.05246e-11 0 1.46087e-10 0 0 8.79635e-12 0 0 0 
0 8.47846e-11 0 0 0 0 0 1.20619e-10 0 
0 0 0 2.3589e-10 0 0 0 0 0 
0 0 0 0 0 4.92167e-11 0 0 0 
0 0 0 4.00003e-11 0 0 0 0 0 
0 0 0 5.13997e-11 5.93942e-11 9.57712e-11 8.44231e-11 0 0 
0 0 0 0 0 0 0 0 0 
0 0 0 2.57437e-11 0 0 0 0 0 
0 0 0 4.52465e-11 0 1.3569e-10 4.47829e-11 0 0 
0 1.89216e-10 0 0 0 0 0 0 0 
0 0 0 0 3.30051e-11 0 0 0 0 
0 0 0 0 0 0 0 0 0 
0 0 0 0 0 0 0 0 0 
0 0 0 0 0 0 0 0 0 
0 0 0 0 0 0 0 0 0 
0 0 0 0 0 0 0 0 0 
1.98846e-12 0 5.14857e-11 0 0 5.6503e-11 0 2.78253e-11 1.53885e-11 
0 0 0 0 0 0 0 0 0 
0 1.35942e-10 0 0 0 0 0 0 0 
0 7.05196e-11 2.47831e-10 0 0 8.37698e-11 0 0 0 
4.1491e-11 0 0 1.63487e-11 0 0 0 0 1.35308e-11 
0 0 0 0 0 0 2.73113e-11 0 6.82304e-11 
0 0 0 7.39203e-11 7.16764e-11 0 0 0 0 
1.76223e-10 0 0 3.03426e-08 0 0 0 3.48526e-08 0 
0 0 0 1.61719e-10 0 1.09001e-10 0 6.73373e-11 1.67633e-10 
1.70108e-11 2.28501e-11 7.55276e-11 0 0 0 0 5.65337e-11 0 
5.62737e-11 0 0 0 0 0 1.56911e-11 0 0 
0 0 0 0 0 0 0 0 0 
2.26433e-11 0 0 0 7.2427e-11 0 0 0 6.07862e-11 
0 0 0 2.06058e-11 0 0 0 5.25544e-11 0 
7.58432e-11 0 0 0 0 0 0 9.1053e-11 4.58049e-11 
0 0 0 0 0 0 1.5827e-10 0 0 
0 0 0 0 0 0 0 0 0 
0 0 0 0 0 7.03112e-11 6.34399e-11 0 0 
0 0 0 0 1.27985e-11 0 0 0 0 
0 3.60284e-11 0 6.08546e-11 0 0 1.49214e-13 0 0 
0 0 9.5436e-11 0 0 0 0 0 0 
0 0 4.58429e-11 6.53903e-11 1.76131e-11 9.87209e-11 0 5.05912e-11 1.33083e-10 
0 0 0 0 0 0 0 0 0 
0 0 0 0 0 0 0 0 0 
0 0 0 0 0 0 0 0 0 
0 0 0 0 0 0 0 0 0 
0 0 0 0 0 0 0 0 0 
0 0 0 0 0 0 0 0 0 
0 4.22701e-11 0 8.9169e-11 0 6.00504e-11 0 0 0 
0 0 0 1.05905e-10 4.67361e-11 4.44397e-11 0 9.85074e-11 0 
0 0 0 0 0 0 0 0 0 
0 0 0 0 0 1.05998e-11 0 0 0 
0 0 0 0 0 0 9.73178e-11 0 0 
0 0 8.45641e-11 0 0 0 1.05992e-11 0 0 
0 0 0 0 0 7.74831e-11 0 1.78439e-10 0 
0 0 2.38479e-10 0 0 0 0 0 0 
0 0 0 0 2.63286e-08 0 0 0 0 
0 0 0 0 0 0 0 0 0 
0 0 0 0 0 0 0 0 1.28658e-11 
0 0 0 0 2.43231e-11 0 0 0 6.32856e-11 
0 4.17264e-12 0 0 1.30526e-10 0 0 0 0 
5.31188e-11 0 0 0 0 0 1.02295e-10 0 8.24681e-11 
6.54763e-11 9.04107e-11 0 0 0 0 1.22566e-10 0 0 
1.02509e-10 2.49721e-08 0 0 0 1.17277e-10 4.80936e-11 0 0 
0 1.93e-10 0 0 0 0 2.83897e-08 0 0 
6.49603e-11 0 0 0 0 0 0 0 0 
0 0 0 0 0 0 0 0 0 
0 4.87904e-11 0 0 0 1.02176e-10 5.88175e-11 0 0 
5.93495e-12 0 0 0 0 0 0 0 0 
0 0 0 0 0 0 0 0 7.8431e-11 
4.28502e-11 0 0 0 0 0 0 0 0 
0 0 0 0 0 0 0 0 0 
0 0 0 0 0 0 0 0 0 
0 0 0 0 0 0 0 0 0 
0 0 0 0 0 0 0 0 0 
0 0 0 0 0 0 2.14223e-11 0 0 
0 6.50287e-11 0 0 0 0 0 9.48633e-11 0 
3.98077e-10 0 0 0 2.63838e-11 7.59084e-11 0 0 0 
0 3.85876e-08 3.87939e-08 0 0 0 2.94015e-11 0 0 
0 0 5.88137e-11 6.1592e-12 0 0 0 0 0 
0 0 8.51387e-11 0 0 4.42029e-11 0 0 0 
0 0 2.26476e-11 0 0 0 0 0 0 
0 1.97305e-11 0 0 1.22347e-11 0 0 0 0 
0 0 0 0 3.34046e-08 0 0 2.1783e-10 0 
2.61949e-10 0 2.69609e-10 0 0 1.24533e-11 0 0 8.15548e-12 
0 0 0 0 0 5.87719e-11 0 0 0 
0 0 0 0 0 0 0 0 0 
0 7.03022e-11 0 0 0 0 0 0 0 
0 7.42137e-12 0 0 0 0 0 0 0 
0 0 0 1.17247e-10 0 0 0 1.63586e-10 0 
0 7.58106e-12 0 0 0 0 0 0 0 
0 7.43026e-11 1.0892e-11 0 1.00886e-10 5.37944e-11 0 2.15455e-10 0 
0 0 0 0 9.27441e-11 0 0 0 2.59304e-11 
0 0 0 0 0 0 0 0 0 
0 0 0 0 1.21548e-11 1.63714e-11 0 0 1.86178e-11 
0 0 0 0 2.577e-10 0 0 1.38428e-10 0 
3.67525e-11 1.27439e-10 0 0 0 1.1299e-10 2.22165e-10 0 0 
0 0 0 0 0 0 0 0 2.091e-11 
0 0 0 0 1.2886e-11 5.75856e-12 0 0 0 
0 0 0 0 0 0 0 0 0 
0 0 0 0 0 0 0 0 0 
0 0 0 0 0 0 0 0 0 
0 0 0 0 0 0 0 0 0 
0 0 0 0 2.03395e-11 0 0 0 0 
0 0 6.59136e-11 0 0 0 0 0 0 
0 1.65161e-11 0 0 4.35291e-11 0 8.35771e-11 0 0 
0 0 2.32412e-10 0 0 9.27836e-11 1.04379e-10 0 0 
0 0 3.86323e-11 0 0 0 0 0 0 
9.46945e-12 0 0 8.82628e-11 0 1.12781e-10 0 0 0 
0 0 0 0 0 0 0 0 0 
0 0 0 0 0 0 7.50543e-12 0 2.12514e-11 
0 4.86433e-10 0 0 0 6.4418e-11 0 2.50416e-11 0 
5.0688e-11 0 0 0 0 0 7.97939e-11 0 0 
0 8.97381e-11 0 0 5.08218e-11 0 0 4.63777e-11 0 
0 0 0 0 0 3.18334e-11 0 0 0 
0 0 0 0 1.00006e-11 0 0 0 0 
0 0 0 0 0 0 0 0 0 
0 3.31935e-11 5.37337e-11 0 0 0 0 0 0 
3.63412e-11 0 0 8.6908e-11 0 0 0 0 0 
0 0 0 0 0 2.49485e-11 0 5.56537e-11 0 
5.32577e-11 0 0 2.1192e-10 0 0 0 4.33827e-11 0 
8.03661e-12 0 0 0 0 0 0 0 0 
0 0 0 0 0 0 0 0 0 
1.97664e-10 1.68187e-10 2.68633e-08 0 0 1.93182e-10 0 0 0 
0 0 5.59824e-11 0 0 2.42263e-11 0 0 0 
0 0 0 1.53798e-11 0 0 0 0 0 
0 0 0 0 0 0 0 0 0 
0 0 0 0 0 0 0 0 0 
0 0 0 0 0 0 0 0 0 
0 0 0 0 0 0 0 0 0 
0 0 0 0 0 0 0 0 0 
0 0 0 0 0 0 0 4.8994e-11 0 
0 2.76783e-11 0 0 0 2.68443e-08 0 3.84634e-10 1.13469e-10 
0 0 0 0 2.75691e-10 2.93138e-10 0 0 0 
5.24884e-11 2.00477e-10 0 0 1.10622e-10 0 0 0 0 
0 0 0 0 0 0 0 0 0 
0 0 0 3.35576e-11 1.01097e-10 9.54756e-11 0 3.02873e-10 0 
0 2.5497e-11 0 0 0 0 6.16353e-11 0 0 
0 0 9.61628e-13 1.09255e-10 2.72862e-11 0 4.08181e-11 0 0 
0 0 4.00926e-11 0 1.03424e-10 8.18624e-12 1.2553e-11 0 0 
1.00181e-10 0 9.19043e-12 1.09598e-11 0 0 0 5.61074e-11 0 
0 0 0 0 0 0 0 0 0 
0 0 0 0 3.2865e-11 0 3.95802e-11 0 0 
0 0 0 0 0 0 0 0 0 
0 0 0 0 0 0 4.7181e-11 0 0 
0 0 1.24649e-10 0 0 0 0 9.21252e-12 0 
0 0 0 0 0 5.25285e-11 0 0 9.51382e-12 
1.31512e-10 0 0 0 0 0 0 0 1.87167e-10 
2.73273e-10 0 0 0 9.85146e-11 0 0 1.91583e-11 0 
1.84533e-11 0 0 0 0 0 0 0 0 
0 0 0 0 0 0 0 0 0 
1.1288e-10 8.45975e-11 7.40911e-11 0 0 0 0 0 0 
0 0 2.02711e-10 2.77624e-11 4.05691e-11 1.09979e-10 0 3.11663e-08 0 
0 0 0 0 0 4.01672e-13 0 0 0 
0 0 0 0 0 0 0 0 0 
0 0 0 0 0 0 0 0 0 
0 0 0 0 0 0 0 0 0 
0 0 0 0 0 0 0 0 0 
0 0 0 0 0 0 0 0 0 
0 0 0 0 0 0 0 2.48399e-10 4.32698e-11 
0 0 0 0 2.84004e-10 1.63418e-10 7.10449e-13 2.32716e-12 0 
0 3.62714e-11 0 1.85693e-10 0 0 0 0 0 
3.83473e-11 0 0 0 0 0 0 0 0 
0 0 0 0 0 0 0 1.25282e-10 0 
0 1.30493e-10 0 0 0 0 5.91846e-11 0 2.8979e-11 
1.17417e-11 0 0 5.53947e-11 0 3.48677e-11 0 0 0 
0 0 0 0 0 4.28183e-11 2.15229e-10 2.50172e-11 0 
0 0 0 2.17975e-11 0 0 0 1.78613e-11 0 
0 9.55605e-11 0 0 0 0 0 0 0 
0 5.82591e-11 1.35082e-10 0 0 0 0 0 1.89941e-11 
9.30572e-12 0 6.09939e-11 0 0 0 0 0 0 
1.21369e-10 0 0 0 0 0 0 0 9.68147e-11 
0 0 0 0 0 0 0 0 0 
0 0 0 0 0 0 3.40323e-11 7.78515e-11 0 
9.89348e-12 1.13613e-10 0 0 0 0 0 0 0 
1.0461e-10 0 0 0 0 0 0 0 0 
0 2.65251e-08 0 0 0 0 0 4.55698e-11 0 
0 0 0 0 0 0 0 0 0 
2.82769e-11 0 0 0 1.22818e-10 0 0 0 3.23798e-10 
0 0 0 1.52006e-10 0 0 0 0 0 
0 0 8.53605e-11 0 0 0 0 0 0 
0 0 0 4.68542e-11 0 0 0 0 0 
0 0 0 0 0 0 0 0 0 
0 0 0 0 0 0 0 0 0 
0 0 0 0 0 0 0 0 0 
0 0 0 0 0 0 0 0 0 
0 0 0 0 0 1.44427e-11 0 0 0 
0 0 0 0 0 0 1.38037e-10 0 0 
1.26135e-12 7.58301e-11 8.01134e-11 0 0 0 0 0 0 
0 0 0 0 0 0 0 4.02821e-12 0 
0 0 0 7.41721e-11 0 0 8.85016e-12 2.30395e-11 0 
0 0 0 0 0 0 0 0 0 
0 0 2.69138e-10 2.72071e-08 0 0 0 0 0 