# vtk DataFile Version 5.1
vtk output
ASCII
DATASET STRUCTURED_POINTS
DIMENSIONS 250 250 1
SPACING 1 1 1
ORIGIN 0 0 0
POINT_DATA 62500
FIELD FieldData 6
feature_1 1 62500 float
0 0 0 0 0 0 0 0 0 
0 0 0 0 0 0 0 0 0 
0 0 0 0 0 0 0 0 0 
0 0 0 0 0 0 0 0 0 
0 0 0 0 0 0 0 0 0 
0 0 0 0 0 0 0 0 0 
0 0 0 0 0 0 0 0 0 
0 0 0 0 0 0 0 0 0 
0 0 0 0 0 0 0 0 0 
0 0 0 0 0 0 0 0 0 
0 0 0 0 0 0 0 0 0 
0 0 0 0 0 0 0 0 0 
0 0 0 0 0 0 0 0 0 
0 0 0 0 0 0 0 0 0 
0 0 0 0 0 0 0 0 0 
0 0 0 0 0 0 0 0 0 
0 0 0 0 0 0 0 0 0 
0 0 0 0 0 0 0 0 0 
0 0 0 0 0 0 0 0 0 
0 0 0 0 0 0 0 0 0 
0 0 0 0 0 0 0 0 0 
0 0 0 0 0 0 0 0 0 
0 0 0 0 0 0 0 0 0 
0 0 0 0 0 0 0 0 0 
0 0 0 0 0 0 0 0 0 
0 0 0 0 0 0 0 0 0 
0 0 0 0 0 0 0 0 0 
0 0 0 0 0 0 0 0 0 
0 0 0 0 0 0 0 0 0 
0 0 0 0 0 0 0 0 0 
0 0 0 0 0 0 0 0 0 
0 0 0 0 0 0 0 0 0 
0 0 0 0 0 0 0 0 0 
0 0 0 0 0 0 0 0 0 
0 0 0 0 0 0 0 0 0 
0 0 0 0 0 0 0 0 0 
0 0 0 0 0 0 0 0 0 
0 0 0 0 0 0 0 0 0 
0 0 0 0 0 0 0 0 0 
0 0 0 0 0 0 0 0 0 
0 0 0 0 0 0 0 0 0 
0 0 0 0 0 0 0 0 0 
0 0 0 0 0 0 0 0 0 
0 0 0 0 0 0 0 0 0 
0 0 0 0 0 0 0 0 0 
0 0 0 0 0 0 0 0 0 
0 0 0 0 0 0 0 0 0 
0 0 0 0 0 0 0 0 0 
0 0 0 0 0 0 0 0 0 
0 0 0 0 0 0 0 0 0 
0 0 0 0 0 0 0 0 0 
0 0 0 0 0 0 0 0 0 
0 0 0 0 0 0 0 0 0 
0 0 0 0 0 0 0 0 0 
0 0 0 0 0 0 0 0 0 
0 0 0 0 0 0 0 0 0 
0 0 0 0 0 0 0 0 0 
0 0 0 0 0 0 0 0 0 
0 0 0 0 0 0 0 0 0 
0 0 0 0 0 0 0 0 0 
0 0 0 0 0 0 0 0 0 
0 0 0 0 0 0 0 0 0 
0 0 0 0 0 0 0 0 0 
0 0 0 0 0 0 0 0 0 
0 0 0 0 0 0 0 0 0 
0 0 0 0 0 0 0 0 0 
0 0 0 0 0 0 0 0 0 
0 0 0 0 0 0 0 0 0 
0 0 0 0 0 0 0 0 0 
0 0 0 0 0 0 0 0 0 
0 0 0 0 0 0 0 0 0 
0 0 0 0 0 0 0 0 0 
0 0 0 0 0 0 0 0 0 
0 0 0 0 0 0 0 0 0 
0 0 0 0 0 0 0 0 0 
0 0 0 0 0 0 0 0 0 
0 0 0 0 0 0 0 0 0 
0 0 0 0 0 0 0 0 0 
0 0 0 0 0 0 0 0 0 
0 0 0 0 0 0 0 0 0 
0 0 0 0 0 0 0 0 0 
0 0 0 0 0 0 0 0 0 
0 0 0 0 0 0 0 0 0 
0 0 0 0 0 0 0 0 0 
0 0 0 0 0 0 0 0 0 
0 0 0 0 0 0 0 0 0 
0 0 0 0 0 0 0 0 0 
0 0 0 0 0 0 0 0 0 
0 0 0 0 0 0 0 0 0 
0 0 0 0 0 0 0 0 0 
0 0 0 0 0 0 0 0 0 
0 0 0 0 0 0 0 0 0 
0 0 0 0 0 0 0 0 0 
0 0 0 0 0 0 0 0 0 
0 0 0 0 0 0 0 0 0 
0 0 0 0 0 0 0 0 0 
0 0 0 0 0 0 0 0 0 
0 0 0 0 0 0 0 0 0 
0 0 0 0 0 0 0 0 0 
0 0 0 0 0 0 0 0 0 
0 0 0 0 0 0 0 0 0 
0 0 0 0 0 0 0 0 0 
0 0 0 0 0 0 0 0 0 
0 0 0 0 0 0 0 0 0 
0 0 0 0 0 0 0 0 0 
0 0 0 0 0 0 0 0 0 
0 0 0 0 0 0 0 0 0 
0 0 0 0 0 0 0 0 0 
0 0 0 0 0 0 0 0 0 
0 0 0 0 0 0 0 0 0 
0 0 0 0 0 0 0 0 0 
0 0 0 0 0 0 0 0 0 
0 0 0 0 0 0 0 0 0 
0 0 0 0 0 0 0 0 0 
0 0 0 0 0 0 0 0 0 
0 0 0 0 0 0 0 0 0 
0 0 0 0 0 0 0 0 0 
0 0 0 0 0 0 0 0 0 
0 0 0 0 0 0 0 0 0 
0 0 0 0 0 0 0 0 0 
0 0 0 0 0 0 0 0 0 
0 0 0 0 0 0 0 0 0 
0 0 0 0 0 0 0 0 0 
0 0 0 0 0 0 0 0 0 
0 0 0 0 0 0 0 0 0 
0 0 0 0 0 0 0 0 0 
0 0 0 0 0 0 0 0 0 
0 0 0 0 0 0 0 0 0 
0 0 0 0 0 0 0 0 0 
0 0 0 0 0 0 0 0 0 
0 0 0 0 0 0 0 0 0 
0 0 0 0 0 0 0 0 0 
0 0 0 0 0 0 0 0 0 
0 0 0 0 0 0 0 0 0 
0 0 0 0 0 0 0 0 0 
0 0 0 0 0 0 0 0 0 
0 0 0 0 0 0 0 0 0 
0 0 0 0 0 0 0 0 0 
0 0 0 0 0 0 0 0 0 
0 0 0 0 0 0 0 0 0 
0 0 0 0 0 0 0 0 0 
0 0 0 0 0 0 0 0 0 
0 0 0 0 0 0 0 0 0 
0 0 0 0 0 0 0 0 0 
0 0 0 0 0 0 0 0 0 
0 0 0 0 0 0 0 0 0 
0 0 0 0 0 0 0 0 0 
0 0 0 0 0 0 0 0 0 
0 0 0 0 0 0 0 0 0 
0 0 0 0 0 0 0 0 0 
0 0 0 0 0 0 0 0 0 
0 0 0 0 0 0 0 0 0 
0 0 0 0 0 0 0 0 0 
0 0 0 0 0 0 0 0 0 
0 0 0 0 0 0 0 0 0 
0 0 0 0 0 0 0 0 0 
0 0 0 0 0 0 0 0 0 
0 0 0 0 0 0 0 0 0 
0 0 0 0 0 0 0 0 0 
0 0 0 0 0 0 0 0 0 
0 0 0 0 0 0 0 0 0 
0 0 0 0 0 0 0 0 0 
0 0 0 0 0 0 0 0 0 
0 0 0 0 0 0 0 0 0 
0 0 0 0 0 0 0 0 0 
0 0 0 0 0 0 0 0 0 
0 0 0 0 0 0 0 0 0 
0 0 0 0 0 0 0 0 0 
0 0 0 0 0 0 0 0 0 
0 0 0 0 0 0 0 0 0 
0 0 0 0 0 0 0 0 0 
0 0 0 0 0 0 0 0 0 
0 0 0 0 0 0 0 0 0 
0 0 0 0 0 0 0 0 0 
0 0 0 0 0 0 0 0 0 
0 0 0 0 0 0 0 0 0 
0 0 0 0 0 0 0 0 0 
0 0 0 0 0 0 0 0 0 
0 0 0 0 0 0 0 0 0 
0 0 0 0 0 0 0 0 0 
0 0 0 0 0 0 0 0 0 
0 0 0 0 0 0 0 0 0 
0 0 0 0 0 0 0 0 0 
0 0 0 0 0 0 0 0 0 
0 0 0 0 0 0 0 0 0 
0 0 0 0 0 0 0 0 0 
0 0 0 0 0 0 0 0 0 
0 0 0 0 0 0 0 0 0 
0 0 0 0 0 0 0 0 0 
0 0 0 0 0 0 0 0 0 
0 0 0 0 0 0 0 0 0 
0 0 0 0 0 0 0 0 0 
0 0 0 0 0 0 0 0 0 
0 0 0 0 0 0 0 0 0 
0 0 0 0 0 0 0 0 0 
0 0 0 0 0 0 0 0 0 
0 0 0 0 0 0 0 0 0 
0 0 0 0 0 0 0 0 0 
0 0 0 0 0 0 0 0 0 
0 0 0 0 0 0 0 0 0 
0 0 0 0 0 0 0 0 0 
0 0 0 0 0 0 0 0 0 
0 0 0 0 0 0 0 0 0 
0 0 0 0 0 0 0 0 0 
0 0 0 0 0 0 0 0 0 
0 0 0 0 0 0 0 0 0 
0 0 0 0 0 0 0 0 0 
0 0 0 0 0 0 0 0 0 
0 0 0 0 0 0 0 0 0 
0 0 0 0 0 0 0 0 0 
0 0 0 0 0 0 0 0 0 
0 0 0 0 0 0 0 0 0 
0 0 0 0 0 0 0 0 0 
0 0 0 0 0 0 0 0 0 
0 0 0 0 0 0 0 0 0 
0 0 0 0 0 0 0 0 0 
0 0 0 0 0 0 0 0 0 
0 0 0 0 0 0 0 0 0 
0 0 0 0 0 0 0 0 0 
0 0 0 0 0 0 0 0 0 
0 0 0 0 0 0 0 0 0 
0 0 0 0 0 0 0 0 0 
0 0 0 0 0 0 0 0 0 
0 0 0 0 0 0 0 0 0 
0 0 0 0 0 0 0 0 0 
0 0 0 0 0 0 0 0 0 
0 0 0 0 0 0 0 0 0 
0 0 0 0 0 0 0 0 0 
0 0 0 0 0 0 0 0 0 
0 0 0 0 0 0 0 0 0 
0 0 0 0 0 0 0 0 0 
0 0 0 0 0 0 0 0 0 
0 0 0 0 0 0 0 0 0 
0 0 0 0 0 0 0 0 0 
0 0 0 0 0 0 0 0 0 
0 0 0 0 0 0 0 0 0 
0 0 0 0 0 0 0 0 0 
0 0 0 0 0 0 0 0 0 
0 0 0 0 0 0 0 0 0 
0 0 0 0 0 0 0 0 0 
0 0 0 0 0 0 0 0 0 
0 0 0 0 0 0 0 0 0 
0 0 0 0 0 0 0 0 0 
0 0 0 0 0 0 0 0 0 
0 0 0 0 0 0 0 0 0 
0 0 0 0 0 0 0 0 0 
0 0 0 0 0 0 0 0 0 
0 0 0 0 0 0 0 0 0 
0 0 0 0 0 0 0 0 0 
0 0 0 0 0 0 0 0 0 
0 0 0 0 0 0 0 0 0 
0 0 0 0 0 0 0 0 0 
0 0 0 0 0 0 0 0 0 
0 0 0 0 0 0 0 0 0 
0 0 0 0 0 0 0 0 0 
0 0 0 0 0 0 0 0 0 
0 0 0 0 0 0 0 0 0 
0 0 0 0 0 0 0 0 0 
0 0 0 0 0 0 0 0 0 
0 0 0 0 0 0 0 0 0 
0 0 0 0 0 0 0 0 0 
0 0 0 0 0 0 0 0 0 
0 0 0 0 0 0 0 0 0 
0 0 0 0 0 0 0 0 0 
0 0 0 0 0 0 0 0 0 
0 0 0 0 0 0 0 0 0 
0 0 0 0 0 0 0 0 0 
0 0 0 0 0 0 0 0 0 
0 0 0 0 0 0 0 0 0 
0 0 0 0 0 0 0 0 0 
0 0 0 0 0 0 0 0 0 
0 0 0 0 0 0 0 0 0 
0 0 0 0 0 0 0 0 0 
0 0 0 0 0 0 0 0 0 
0 0 0 0 0 0 0 0 0 
0 0 0 0 0 0 0 0 0 
0 0 0 0 0 0 0 0 0 
0 0 0 0 0 0 0 0 0 
0 0 0 0 0 0 0 0 0 
0 0 0 0 0 0 0 0 0 
0 0 0 0 0 0 0 0 0 
0 0 0 0 0 0 0 0 0 
0 0 0 0 0 0 0 0 0 
0 0 0 0 0 0 0 0 0 
0 0 0 0 0 0 0 0 0 
0 0 0 0 0 0 0 0 0 
0 0 0 0 0 0 0 0 0 
0 0 0 0 0 0 0 0 0 
0 0 0 0 0 0 0 0 0 
0 0 0 0 0 0 0 0 0 
0 0 0 0 0 0 0 0 0 
0 0 0 0 0 0 0 0 0 
0 0 0 0 0 0 0 0 0 
0 0 0 0 0 0 0 0 0 
0 0 0 0 0 0 0 0 0 
0 0 0 0 0 0 0 0 0 
0 0 0 0 0 0 0 0 0 
0 0 0 0 0 0 0 0 0 
0 0 0 0 0 0 0 0 0 
0 0 0 0 0 0 0 0 0 
0 0 0 0 0 0 0 0 0 
0 0 0 0 0 0 0 0 0 
0 0 0 0 0 0 0 0 0 
0 0 0 0 0 0 0 0 0 
0 0 0 0 0 0 0 0 0 
0 0 0 0 0 0 0 0 0 
0 0 0 0 0 0 0 0 0 
0 0 0 0 0 0 0 0 0 
0 0 0 0 0 0 0 0 0 
0 0 0 0 0 0 0 0 0 
0 0 0 0 0 0 0 0 0 
0 0 0 0 0 0 0 0 0 
0 0 0 0 0 0 0 0 0 
0 0 0 0 0 0 0 0 0 
0 0 0 0 0 0 0 0 0 
0 0 0 0 0 0 0 0 0 
0 0 0 0 0 0 0 0 0 
0 0 0 0 0 0 0 0 0 
0 0 0 0 0 0 0 0 0 
0 0 0 0 0 0 0 0 0 
0 0 0 0 0 0 0 0 0 
0 0 0 0 0 0 0 0 0 
0 0 0 0 0 0 0 0 0 
0 0 0 0 0 0 0 0 0 
0 0 0 0 0 0 0 0 0 
0 0 0 0 0 0 0 0 0 
0 0 0 0 0 0 0 0 0 
0 0 0 0 0 0 0 0 0 
0 0 0 0 0 0 0 0 0 
0 0 0 0 0 0 0 0 0 
0 0 0 0 0 0 0 0 0 
0 0 0 0 0 0 0 0 0 
0 0 0 0 0 0 0 0 0 
0 0 0 0 0 0 0 0 0 
0 0 0 0 0 0 0 0 0 
0 0 0 0 0 0 0 0 0 
0 0 0 0 0 0 0 0 0 
0 0 0 0 0 0 0 0 0 
0 0 0 0 0 0 0 0 0 
0 0 0 0 0 0 0 0 0 
0 0 0 0 0 0 0 0 0 
0 0 0 0 0 0 0 0 0 
0 0 0 0 0 0 0 0 0 
0 0 0 0 0 0 0 0 0 
0 0 0 0 0 0 0 0 0 
0 0 0 0 0 0 0 0 0 
0 0 0 0 0 0 0 0 0 
0 0 0 0 0 0 0 0 0 
0 0 0 0 0 0 0 0 0 
0 0 0 0 0 0 0 0 0 
0 0 0 0 0 0 0 0 0 
0 0 0 0 0 0 0 0 0 
0 0 0 0 0 0 0 0 0 
0 0 0 0 0 0 0 0 0 
0 0 0 0 0 0 0 0 0 
0 0 0 0 0 0 0 0 0 
0 0 0 0 0 0 0 0 0 
0 0 0 0 0 0 0 0 0 
0 0 0 0 0 0 0 0 0 
0 0 0 0 0 0 0 0 0 
0 0 0 0 0 0 0 0 0 
0 0 0 0 0 0 0 0 0 
0 0 0 0 0 0 0 0 0 
0 0 0 0 0 0 0 0 0 
0 0 0 0 0 0 0 0 0 
0 0 0 0 0 0 0 0 0 
0 0 0 0 0 0 0 0 0 
0 0 0 0 0 0 0 0 0 
0 0 0 0 0 0 0 0 0 
0 0 0 0 0 0 0 0 0 
0 0 0 0 0 0 0 0 0 
0 0 0 0 0 0 0 0 0 
0 0 0 0 0 0 0 0 0 
0 0 0 0 0 0 0 0 0 
0 0 0 0 0 0 0 0 0 
0 0 0 0 0 0 0 0 0 
0 0 0 0 0 0 0 0 0 
0 0 0 0 0 0 0 0 0 
0 0 0 0 0 0 0 0 0 
0 0 0 0 0 0 0 0 0 
0 0 0 0 0 0 0 0 0 
0 0 0 0 0 0 0 0 0 
0 0 0 0 0 0 0 0 0 
0 0 0 0 0 0 0 0 0 
0 0 0 0 0 0 0 0 0 
0 0 0 0 0 0 0 0 0 
0 0 0 0 0 0 0 0 0 
0 0 0 0 0 0 0 0 0 
0 0 0 0 0 0 0 0 0 
0 0 0 0 0 0 0 0 0 
0 0 0 0 0 0 0 0 0 
0 0 0 0 0 0 0 0 0 
0 0 0 0 0 0 0 0 0 
0 0 0 0 0 0 0 0 0 
0 0 0 0 0 0 0 0 0 
0 0 0 0 0 0 0 0 0 
0 0 0 0 0 0 0 0 0 
0 0 0 0 0 0 0 0 0 
0 0 0 0 0 0 0 0 0 
0 0 0 0 0 0 0 0 0 
0 0 0 0 0 0 0 0 0 
0 0 0 0 0 0 0 0 0 
0 0 0 0 0 0 0 0 0 
0 0 0 0 0 0 0 0 0 
0 0 0 0 0 0 0 0 0 
0 0 0 0 0 0 0 0 0 
0 0 0 0 0 0 0 0 0 
0 0 0 0 0 0 0 0 0 
0 0 0 0 0 0 0 0 0 
0 0 0 0 0 0 0 0 0 
0 0 0 0 0 0 0 0 0 
0 0 0 0 0 0 0 0 0 
0 0 0 0 0 0 0 0 0 
0 0 0 0 0 0 0 0 0 
0 0 0 0 0 0 0 0 0 
0 0 0 0 0 0 0 0 0 
0 0 0 0 0 0 0 0 0 
0 0 0 0 0 0 0 0 0 
0 0 0 0 0 0 0 0 0 
0 0 0 0 0 0 0 0 0 
0 0 0 0 0 0 0 0 0 
0 0 0 0 0 0 0 0 0 
0 0 0 0 0 0 0 0 0 
0 0 0 0 0 0 0 0 0 
0 0 0 0 0 0 0 0 0 
0 0 0 0 0 0 0 0 0 
0 0 0 0 0 0 0 0 0 
0 0 0 0 0 0 0 0 0 
0 0 0 0 0 0 0 0 0 
0 0 0 0 0 0 0 0 0 
0 0 0 0 0 0 0 0 0 
0 0 0 0 0 0 0 0 0 
0 0 0 0 0 0 0 0 0 
0 0 0 0 0 0 0 0 0 
0 0 0 0 0 0 0 0 0 
0 0 0 0 0 0 0 0 0 
0 0 0 0 0 0 0 0 0 
0 0 0 0 0 0 0 0 0 
0 0 0 0 0 0 0 0 0 
0 0 0 0 0 0 0 0 0 
0 0 0 0 0 0 0 0 0 
0 0 0 0 0 0 0 0 0 
0 0 0 0 0 0 0 0 0 
0 0 0 0 0 0 0 0 0 
0 0 0 0 0 0 0 0 0 
0 0 0 0 0 0 0 0 0 
0 0 0 0 0 0 0 0 0 
0 0 0 0 0 0 0 0 0 
0 0 0 0 0 0 0 0 0 
0 0 0 0 0 0 0 0 0 
0 0 0 0 0 0 0 0 0 
0 0 0 0 0 0 0 0 0 
0 0 0 0 0 0 0 0 0 
0 0 2.26742e-12 0 0 0 0 0 0 
0 0 0 0 0 0 0 0 0 
0 0 0 0 0 0 0 0 0 
0 0 0 0 0 0 0 0 0 
0 0 0 0 0 0 0 0 0 
0 0 0 0 0 0 0 0 0 
0 0 0 0 0 0 0 1.7984e-12 0 
0 0 0 0 0 0 0 0 0 
0 0 0 0 0 0 0 0 0 
0 0 0 0 0 0 0 0 0 
0 0 0 0 0 0 0 0 0 
0 0 0 0 0 0 0 0 0 
0 0 0 0 0 0 0 0 0 
0 0 0 0 0 0 0 0 0 
0 0 0 0 0 0 0 0 0 
0 0 0 0 0 0 0 0 0 
0 0 0 0 0 0 0 0 0 
0 0 0 0 0 0 0 0 0 
0 0 0 0 0 0 0 0 0 
0 0 0 0 0 0 0 0 0 
0 0 0 0 0 0 0 0 0 
0 0 0 0 0 0 0 0 0 
0 0 0 0 0 0 0 0 0 
0 0 0 0 0 0 0 0 0 
0 0 0 0 0 0 0 0 0 
0 0 0 0 0 0 0 0 0 
0 0 0 0 0 0 0 0 0 
0 0 0 0 0 0 0 0 0 
0 0 0 0 0 0 0 0 0 
0 0 0 0 0 0 0 0 0 
0 0 0 0 0 0 0 0 0 
0 0 0 0 0 0 0 0 0 
0 0 0 0 0 0 0 0 0 
0 0 0 0 0 0 0 0 0 
0 0 0 0 0 0 0 0 0 
0 0 0 0 0 0 0 0 0 
0 0 0 0 0 0 0 0 0 
0 0 0 0 0 0 0 0 0 
0 0 0 0 0 0 0 0 0 
0 0 0 0 0 0 0 0 0 
0 0 0 0 0 0 0 0 0 
0 0 0 0 0 0 0 0 0 
0 0 0 0 0 0 0 0 0 
0 0 0 0 0 0 0 0 0 
0 0 0 0 0 0 0 0 0 
0 0 0 0 0 0 0 0 0 
0 0 0 0 0 0 0 0 0 
0 0 0 0 0 0 0 0 0 
0 0 0 0 0 0 0 0 0 
0 0 0 0 0 0 0 0 0 
0 0 0 0 0 0 0 0 0 
0 0 0 0 2.34747e-12 0 0 0 0 
0 0 0 0 0 0 0 0 0 
0 0 0 0 0 0 0 0 0 
0 0 0 0 0 0 0 0 0 
0 0 0 0 0 0 0 0 0 
0 0 0 0 0 0 0 0 0 
0 0 0 0 0 0 0 0 0 
0 0 0 0 0 0 0 0 0 
0 0 0 0 0 0 0 0 0 
0 0 0 0 0 0 0 0 0 
0 0 0 0 0 0 0 0 0 
0 0 0 0 0 0 0 0 0 
0 0 0 0 0 0 0 0 0 
0 0 0 0 0 0 0 0 0 
0 0 0 0 0 0 0 0 0 
0 0 0 0 0 0 0 0 0 
0 0 0 0 0 0 0 0 0 
0 0 0 0 0 0 0 0 0 
0 0 0 0 0 0 0 0 0 
0 0 0 0 0 0 0 0 0 
0 0 0 0 0 0 0 0 0 
0 0 0 0 0 0 0 0 0 
0 0 0 0 0 0 0 0 0 
0 0 0 0 0 0 0 0 0 
0 0 0 0 0 0 0 0 0 
0 0 0 0 0 0 0 0 0 
0 0 0 0 0 0 0 0 0 
0 0 0 0 0 0 0 0 0 
0 0 0 0 0 0 0 0 0 
0 0 0 0 0 0 0 0 0 
0 0 0 0 0 0 0 0 0 
0 0 0 0 0 0 0 0 0 
0 0 0 0 0 0 0 0 0 
0 0 0 0 0 0 0 0 0 
0 0 0 0 0 0 0 0 0 
0 0 0 0 0 0 0 0 0 
0 0 0 0 0 0 0 0 0 
0 0 0 0 0 0 0 0 0 
0 0 0 0 0 0 0 0 0 
0 0 0 0 0 0 0 0 0 
0 0 0 0 0 0 0 0 0 
0 0 0 0 0 0 0 0 0 
0 0 0 0 0 0 0 0 0 
0 0 0 0 0 0 0 0 0 
0 0 0 0 0 0 0 0 0 
0 0 0 0 0 0 0 0 0 
0 0 0 0 0 0 0 0 0 
0 0 0 0 0 0 0 0 0 
0 0 0 0 0 0 0 0 0 
0 0 0 0 0 0 0 0 0 
0 0 0 0 0 0 0 0 0 
0 0 0 0 0 0 0 0 0 
0 0 0 0 0 0 0 0 0 
0 0 0 0 0 0 0 0 0 
0 0 0 0 0 0 0 0 0 
0 0 0 0 0 0 0 0 0 
0 0 0 0 3.60786e-12 0 0 0 0 
0 0 0 0 0 0 0 0 0 
0 0 0 0 0 0 0 0 0 
0 0 0 0 3.02829e-11 0 0 0 0 
0 0 0 0 0 0 0 0 0 
0 0 0 0 0 0 0 0 0 
0 0 0 0 0 0 0 0 0 
0 0 0 0 0 0 0 0 0 
0 0 0 0 0 0 0 0 0 
0 0 0 0 0 0 0 0 0 
0 0 0 0 0 0 0 0 0 
0 0 0 0 0 0 0 0 0 
0 0 0 0 0 0 0 0 0 
0 0 0 0 0 0 0 0 0 
0 0 0 0 0 0 0 0 0 
0 0 0 0 0 0 0 0 0 
0 0 0 0 0 0 0 0 0 
0 0 0 0 0 0 0 0 0 
0 0 0 0 0 0 0 0 0 
0 0 0 0 0 0 0 0 0 
0 0 0 0 0 0 0 0 0 
0 0 0 0 0 0 0 0 0 
0 0 0 0 0 0 0 0 0 
0 0 0 0 0 0 0 0 0 
0 0 0 0 0 0 0 0 0 
0 0 0 0 0 0 0 0 0 
0 0 0 0 0 0 0 0 0 
0 0 0 0 0 0 0 6.32657e-12 0 
0 0 0 0 0 0 0 0 0 
0 0 0 0 0 0 0 0 0 
0 0 0 0 0 0 1.98012e-11 0 0 
0 0 0 0 0 0 0 0 0 
0 0 0 0 0 0 0 0 0 
0 0 0 0 0 0 0 0 0 
1.53132e-11 0 0 0 0 2.13072e-11 0 0 0 
0 0 0 0 0 0 0 0 0 
0 0 0 0 0 0 0 0 0 
0 0 0 0 0 0 0 0 0 
0 0 0 0 0 0 0 0 0 
0 0 0 0 0 0 0 1.38932e-11 0 
0 0 0 0 0 0 0 0 0 
0 0 0 0 0 0 0 0 0 
0 0 0 0 0 0 0 0 0 
0 0 0 0 0 0 0 0 1.8904e-12 
0 0 0 0 0 0 0 0 0 
0 0 0 0 0 0 0 0 0 
0 0 0 0 0 0 0 0 0 
0 0 0 0 0 0 0 0 0 
0 0 0 0 0 0 0 0 0 
0 0 0 0 0 0 0 0 0 
0 0 0 0 0 0 0 0 0 
0 0 0 0 0 0 0 0 0 
0 0 0 0 0 0 0 0 0 
0 0 0 0 0 0 0 0 0 
0 0 0 0 0 0 0 0 0 
0 0 0 0 0 0 0 0 0 
0 0 0 0 0 9.30921e-12 0 0 0 
0 0 0 0 0 0 0 0 0 
0 0 0 0 0 0 0 0 0 
0 0 0 0 0 0 0 0 0 
0 1.06022e-11 0 0 2.49017e-11 0 0 0 0 
0 0 0 0 0 0 0 0 0 
0 0 0 0 0 0 0 0 0 
0 2.08181e-11 0 0 0 0 0 0 0 
0 0 0 0 0 0 0 0 0 
0 0 0 0 0 0 0 0 0 
0 0 0 0 0 0 1.10587e-11 4.02484e-11 0 
0 0 0 5.62149e-12 0 0 0 0 0 
0 0 0 0 0 0 0 0 0 
0 0 0 0 0 0 0 0 0 
0 0 0 0 0 0 0 0 0 
0 0 0 0 0 0 0 0 0 
0 0 0 0 0 0 0 0 0 
0 0 0 0 0 0 0 0 0 
0 0 0 0 0 0 0 0 0 
0 0 0 0 0 0 0 0 0 
0 0 0 0 0 0 0 0 0 
0 0 0 0 0 0 0 0 0 
0 0 0 0 0 0 0 0 0 
0 0 0 0 0 0 0 0 0 
0 0 0 0 0 0 0 0 0 
0 0 0 0 0 0 0 4.44724e-12 0 
0 0 0 0 0 0 0 0 0 
0 0 1.61602e-11 0 0 0 0 0 0 
0 0 1.78771e-11 7.72099e-12 0 0 0 0 0 
0 0 0 0 0 0 0 0 0 
0 0 0 0 0 0 0 0 0 
0 0 1.64528e-11 0 0 0 0 0 0 
0 0 0 0 0 0 0 0 0 
0 0 0 0 0 0 0 0 0 
0 0 0 0 0 0 4.05711e-12 1.53418e-11 0 
0 2.19405e-11 0 0 0 0 0 0 0 
1.16901e-11 0 0 0 0 0 0 0 0 
0 0 1.49854e-11 0 0 0 0 0 0 
0 0 0 0 0 0 0 0 0 
0 0 0 0 0 0 0 0 0 
0 0 0 0 0 0 0 0 0 
0 0 0 0 0 0 0 0 0 
0 0 0 0 0 0 0 0 0 
0 0 0 0 0 0 0 0 0 
0 0 0 0 0 0 0 0 0 
0 0 0 0 0 0 0 0 0 
0 0 0 8.99955e-12 0 0 0 0 0 
0 0 0 0 0 0 0 0 0 
0 0 0 0 0 0 0 0 0 
0 0 0 0 0 0 0 0 0 
0 0 0 0 0 0 0 0 0 
0 0 0 0 0 0 0 0 0 
0 0 0 0 0 0 0 0 0 
0 0 0 0 0 0 0 0 0 
0 0 0 0 0 0 0 0 0 
0 0 0 0 2.23026e-11 0 0 0 0 
0 0 0 0 0 0 0 0 0 
0 0 0 0 0 1.75465e-11 0 2.48027e-12 0 
3.95113e-11 0 3.94298e-11 0 0 0 0 1.82033e-12 0 
2.78499e-11 0 0 0 0 0 0 0 0 
0 0 0 0 0 0 0 0 0 
0 0 0 0 0 0 0 0 0 
0 0 0 0 0 0 0 0 0 
0 0 0 8.42341e-12 0 1.29637e-11 0 0 0 
0 0 0 0 0 0 1.06148e-11 0 0 
0 0 0 0 0 0 0 0 0 
0 0 0 0 0 3.95718e-11 0 0 0 
0 0 0 0 0 0 0 0 0 
0 0 0 0 0 0 0 0 0 
0 0 0 0 0 0 0 0 0 
0 0 0 0 0 0 0 0 0 
0 0 0 0 0 0 0 0 0 
0 0 0 0 0 0 0 0 0 
0 0 0 6.48824e-12 0 0 0 0 0 
0 0 0 0 0 0 0 0 0 
0 0 0 0 0 0 0 0 0 
0 0 0 0 0 0 0 0 0 
0 0 0 0 0 0 0 0 0 
0 0 0 0 0 0 0 0 0 
0 0 0 0 0 0 0 0 0 
0 0 0 0 0 0 0 0 0 
0 0 0 0 0 0 0 0 0 
0 0 0 0 0 0 1.47589e-11 0 0 
0 0 3.71328e-11 0 0 0 0 0 0 
0 0 0 0 0 1.93164e-11 0 0 0 
0 0 0 0 0 0 0 0 0 
0 2.43857e-11 0 0 0 3.95314e-11 0 0 0 
0 0 0 0 0 0 0 0 0 
0 0 2.4746e-11 0 0 0 0 3.88593e-11 0 
4.57e-11 0 0 0 0 0 0 0 0 
0 0 0 0 0 0 0 0 0 
0 0 0 0 0 0 0 0 1.20218e-11 
0 0 0 0 0 0 0 0 0 
0 0 0 0 0 0 0 0 0 
4.65398e-12 0 0 1.23884e-10 1.76318e-11 0 0 0 0 
0 0 0 0 0 0 0 0 0 
0 1.41674e-11 0 0 0 0 0 0 0 
0 0 0 0 0 0 0 0 0 
0 0 0 0 0 0 0 0 0 
0 0 0 0 0 0 0 0 0 
0 0 0 0 0 0 0 0 0 
0 0 0 0 0 0 0 0 3.42696e-11 
0 0 0 0 0 0 0 0 0 
0 0 0 0 0 0 0 0 0 
0 0 0 0 0 0 0 0 0 
0 0 0 0 0 0 0 0 0 
0 0 0 0 0 0 0 0 0 
0 0 0 0 0 0 0 0 0 
0 0 0 0 0 0 0 0 0 
0 0 0 0 0 0 0 0 0 
0 0 0 0 0 0 0 0 0 
0 0 0 0 6.09041e-11 0 0 0 0 
0 0 1.46898e-11 0 0 0 0 0 0 
0 0 1.19578e-11 1.45071e-11 0 0 0 0 0 
0 0 0 0 2.10325e-11 0 0 0 0 
0 0 0 0 0 0 0 0 0 
2.08142e-11 0 0 1.10513e-10 0 0 0 0 0 
0 0 0 0 0 0 0 0 0 
5.05323e-11 4.69504e-11 0 0 6.72116e-11 0 0 0 0 
0 0 3.24644e-11 0 0 0 0 0 0 
0 0 0 0 2.01646e-11 0 0 0 0 
0 0 0 0 0 0 5.90659e-11 0 0 
0 0 0 4.89576e-12 0 0 0 0 0 
0 0 0 1.20814e-11 3.33849e-11 0 0 0 0 
0 0 0 0 0 0 0 0 0 
0 7.13643e-12 0 0 0 0 0 0 0 
0 1.99892e-11 0 0 0 0 0 0 0 
0 0 0 0 0 0 0 0 0 
0 0 0 0 0 0 0 1.219e-11 0 
0 1.92426e-11 0 0 0 0 0 0 0 
0 0 0 0 0 0 0 0 0 
0 0 0 0 0 0 0 0 0 
0 0 0 0 0 0 0 0 0 
0 0 0 0 0 0 0 0 0 
0 0 0 0 0 0 0 0 0 
0 0 0 0 0 0 0 0 0 
0 0 0 0 0 0 0 0 0 
0 0 0 0 0 0 0 0 0 
0 0 0 0 0 0 0 0 0 
0 0 5.38885e-11 0 0 0 0 0 0 
0 0 0 0 0 0 0 0 0 
0 0 0 0 7.52582e-11 0 0 0 0 
0 3.86423e-12 5.24448e-11 4.31554e-11 0 0 0 0 0 
6.11786e-12 0 0 0 0 6.68635e-12 0 0 0 
0 0 0 0 0 0 0 0 0 
0 0 0 0 0 7.09012e-11 0 6.3639e-11 0 
0 0 0 0 0 0 0 0 0 
3.30228e-11 0 0 0 0 0 0 0 0 
0 0 0 0 0 0 0 0 0 
0 0 0 0 0 0 0 7.43935e-11 1.56784e-10 
0 0 0 0 0 0 3.39425e-11 0 0 
0 0 0 0 0 6.20268e-11 0 0 0 
0 0 0 0 1.76803e-11 0 0 0 0 
0 0 1.56843e-11 0 0 0 0 0 0 
0 0 0 0 0 0 9.31495e-12 0 0 
0 0 0 0 0 0 0 0 0 
0 0 0 0 0 0 0 0 0 
0 0 2.19482e-11 0 0 0 0 0 0 
0 0 0 0 5.18203e-12 0 0 0 0 
0 0 0 0 0 0 0 0 0 
0 0 0 0 0 0 0 0 0 
0 0 0 0 0 0 0 0 0 
0 0 0 0 0 0 0 0 0 
0 0 0 0 0 0 0 0 0 
0 0 0 0 0 0 0 7.58417e-11 0 
0 6.18395e-11 0 0 0 0 0 0 0 
0 0 0 2.30562e-11 0 3.96651e-11 0 0 0 
0 2.24418e-10 0 0 6.53327e-11 0 0 0 0 
0 0 0 2.65305e-11 0 0 0 0 0 
0 0 0 2.43601e-10 2.43704e-08 0 0 0 3.86162e-11 
0 2.70104e-11 0 0 0 0 0 0 0 
0 0 0 0 2.59428e-10 0 0 0 2.82226e-11 
0 0 0 2.40791e-11 0 0 0 0 3.43061e-11 
0 0 0 0 0 0 0 0 0 
0 0 0 0 0 0 0 0 0 
0 0 0 0 0 0 0 0 0 
0 0 5.44904e-11 0 0 0 0 0 0 
0 0 0 0 0 0 0 0 0 
0 0 0 0 0 0 0 0 0 
0 0 0 0 0 0 0 0 0 
0 2.3567e-11 0 0 0 0 0 0 0 
2.47884e-11 0 0 0 0 2.53566e-11 0 0 0 
0 0 0 0 0 0 0 0 0 
0 0 0 0 0 0 0 7.94107e-12 0 
0 0 1.18789e-11 0 0 0 0 0 0 
0 0 0 5.12629e-11 0 0 0 0 0 
0 0 0 0 0 0 0 0 0 
0 0 0 0 0 0 0 0 0 
0 0 0 0 0 0 0 0 0 
0 0 0 0 0 0 0 0 0 
0 0 0 0 0 0 0 0 0 
0 0 0 0 0 0 0 0 0 
0 0 0 0 0 0 0 0 0 
0 0 0 3.90346e-11 0 0 2.4238e-11 0 0 
0 0 0 0 0 0 0 0 0 
0 2.53145e-11 0 0 0 0 0 0 2.74618e-12 
0 0 0 0 7.48068e-12 0 4.59659e-11 0 0 
0 0 0 0 8.18674e-12 0 4.76336e-11 0 2.08857e-11 
0 0 0 0 0 0 9.88824e-12 0 5.51121e-11 
0 1.36955e-10 2.55185e-08 0 0 0 0 0 0 
0 0 0 0 2.6533e-08 0 0 1.50734e-10 0 
0 6.32381e-12 5.40135e-11 0 0 9.41889e-11 1.1529e-10 0 0 
0 0 0 4.68658e-11 1.62519e-11 0 0 0 0 
0 0 0 1.9253e-11 0 1.81864e-11 0 0 0 
1.06609e-11 0 1.01276e-10 5.99575e-11 0 0 0 0 0 
0 0 0 2.52608e-08 0 0 0 2.56134e-11 1.747e-10 
7.36294e-11 0 0 1.97873e-10 0 0 0 0 0 
0 0 0 0 0 3.81341e-11 0 0 0 
0 0 4.62599e-12 0 2.08301e-11 0 0 0 0 
0 0 2.45555e-12 0 0 0 0 0 0 
0 0 0 0 0 0 0 0 0 
0 0 0 0 0 0 0 0 0 
0 0 0 0 0 0 0 0 0 
0 0 0 0 0 0 0 0 0 
0 0 1.69869e-11 0 0 0 0 0 0 
0 0 0 0 0 0 0 0 0 
0 0 0 0 0 0 0 0 0 
0 0 0 0 0 0 0 0 0 
0 0 0 0 0 0 0 0 0 
0 0 0 0 0 0 0 0 0 
0 0 0 0 0 7.60814e-11 0 0 0 
0 0 0 0 0 0 0 1.36416e-11 0 
0 1.18827e-10 0 0 0 1.12268e-11 0 0 0 
0 0 0 0 0 0 3.93415e-11 0 0 
0 0 0 0 1.51132e-11 0 0 7.535e-11 0 
0 0 0 0 0 0 0 0 0 
0 0 0 0 0 3.09537e-11 0 0 0 
1.71124e-10 0 0 0 1.75778e-10 0 0 0 0 
2.45713e-11 0 0 0 0 0 0 0 7.0504e-11 
2.49748e-11 0 1.60441e-10 0 0 0 2.46924e-08 0 0 
0 0 0 0 0 1.86685e-11 1.82769e-11 0 0 
0 0 0 0 0 1.05217e-10 0 0 0 
9.69483e-11 1.9902e-10 0 0 0 0 0 0 1.41634e-10 
0 0 0 2.97251e-11 0 0 0 0 0 
7.38862e-11 0 0 0 5.70622e-11 0 0 0 0 
0 0 1.15543e-11 4.04008e-11 0 0 0 0 0 
0 0 0 0 0 0 0 0 0 
0 0 6.34969e-11 0 0 0 0 0 0 
0 0 0 0 0 0 0 0 0 
0 6.94855e-12 0 0 0 0 0 1.65666e-11 0 
0 0 0 8.64312e-11 0 0 0 0 0 
0 6.62789e-11 0 3.44093e-11 0 0 0 0 1.08996e-11 
0 0 0 0 0 0 0 0 0 
0 0 0 0 0 0 0 0 0 
0 0 0 0 0 0 0 0 0 
0 0 0 0 0 0 0 0 0 
0 0 0 0 0 0 0 0 0 
0 0 0 0 0 0 0 0 0 
0 0 0 5.49554e-11 0 6.81814e-11 0 0 0 
0 0 0 4.28594e-11 3.7301e-11 0 0 0 0 
0 2.63938e-08 0 0 0 0 0 0 0 
0 0 0 0 0 0 0 0 0 
0 0 0 0 0 2.25617e-11 6.75793e-11 0 0 
0 3.85957e-11 5.21899e-12 0 0 0 0 0 0 
0 0 0 0 0 0 0 0 0 
0 0 8.28482e-11 0 2.35768e-11 0 0 0 0 
0 0 0 0 0 0 5.13356e-11 1.83948e-11 0 
0 1.29593e-10 0 0 0 0 3.65052e-10 0 3.35372e-12 
0 0 0 0 0 0 0 0 0 
0 0 5.11001e-11 7.12967e-11 0 2.39339e-10 0 0 6.39851e-11 
0 0 0 3.96097e-11 4.27182e-11 3.16805e-11 0 0 0 
0 0 0 0 0 0 2.73943e-08 2.8112e-10 0 
0 0 0 0 0 6.97704e-11 0 0 0 
0 0 0 0 0 0 0 0 0 
0 5.90123e-11 1.00385e-10 0 0 0 0 3.91e-11 0 
0 0 0 0 0 0 0 1.11795e-11 0 
0 0 0 0 0 0 0 0 0 
0 0 0 0 0 0 0 0 0 
0 0 0 0 0 0 0 0 0 
0 0 0 5.61366e-11 0 0 0 0 0 
0 0 0 0 0 0 0 0 0 
0 0 0 0 0 0 0 0 0 
0 0 0 0 0 0 0 0 0 
0 0 0 0 0 0 0 0 0 
0 0 0 0 0 0 0 0 0 
0 0 4.76643e-12 0 0 0 0 4.0869e-11 0 
0 6.59219e-11 0 0 2.47755e-08 0 3.30631e-11 0 0 
0 0 0 0 2.68753e-11 0 0 0 0 
2.95526e-10 0 0 0 0 0 1.39398e-10 0 0 
1.44641e-10 0 0 0 6.88546e-11 0 0 0 0 
0 0 3.63346e-11 0 0 0 4.21143e-11 0 0 
0 0 2.48842e-11 4.69345e-11 0 3.39579e-11 0 3.00089e-11 0 
0 0 1.12619e-10 0 0 2.49851e-10 0 0 0 
0 0 0 0 0 0 2.09668e-10 0 0 
5.67307e-11 0 0 0 0 0 0 1.1514e-10 0 
1.71524e-10 0 1.18674e-10 0 0 0 0 5.61981e-11 0 
0 0 0 0 0 0 0 0 0 
0 0 0 2.45056e-08 1.32581e-10 0 0 0 0 
0 0 1.15447e-11 0 0 6.44655e-11 0 0 0 
6.0488e-12 0 0 0 0 0 0 0 1.99851e-10 
0 0 0 0 0 0 7.1616e-11 0 3.00435e-11 
0 0 0 0 0 0 0 0 1.40063e-10 
0 0 0 5.91584e-11 1.28096e-10 0 0 0 0 
0 0 0 0 0 0 0 1.24784e-11 0 
0 0 0 0 0 0 0 0 5.38863e-12 
0 0 0 0 0 0 1.31224e-10 0 2.19326e-10 
0 0 0 2.49879e-08 0 0 0 0 0 
0 0 3.66335e-11 0 0 0 0 0 0 
0 0 0 0 0 0 0 0 0 
0 0 0 0 0 0 0 0 0 
0 0 0 0 0 0 0 0 0 
0 0 0 0 0 0 0 0 0 
0 0 0 0 0 0 0 0 0 
0 0 0 0 0 0 0 0 3.8473e-12 
0 1.77485e-10 0 1.21707e-10 0 0 0 0 0 
0 0 0 0 0 0 0 0 0 
2.00879e-10 0 0 0 0 8.94899e-11 9.87228e-11 0 0 
0 0 2.65033e-12 0 0 0 0 0 0 
2.25731e-11 0 0 0 0 2.93571e-11 0 7.40327e-11 0 
0 0 0 0 3.23463e-11 0 0 0 0 
6.70406e-11 0 0 0 0 0 4.82007e-11 0 0 
0 0 0 3.36317e-10 0 0 0 0 0 
0 0 0 3.23026e-11 0 0 0 0 2.41215e-10 
0 0 0 0 5.33241e-11 0 0 0 0 
0 0 0 0 0 0 0 0 1.6004e-11 
0 0 0 0 9.77999e-11 0 0 0 0 
1.30038e-10 0 0 0 0 0 0 0 1.1647e-10 
0 0 0 0 1.33217e-10 2.69182e-10 2.7189e-08 0 0 
0 0 2.85063e-12 0 4.25509e-12 0 0 0 0 
5.00584e-12 0 0 0 0 0 1.60535e-10 7.67948e-11 0 
0 0 0 0 0 0 1.87826e-10 0 0 
0 0 1.16796e-11 0 0 0 0 0 0 
0 0 0 0 0 2.29988e-11 0 0 0 
0 0 0 2.39248e-11 4.86025e-11 2.15552e-12 0 0 0 
0 0 0 0 2.07203e-11 0 0 6.81722e-11 4.66082e-11 
0 0 0 0 0 0 0 0 0 
0 0 0 0 0 0 0 0 0 
0 0 0 0 0 0 0 0 0 
0 0 0 0 0 0 0 0 0 
0 0 0 0 0 0 0 0 0 
0 0 0 0 0 0 0 0 0 
0 0 0 0 0 0 1.9281e-10 1.69872e-11 0 
1.05355e-10 0 3.62449e-11 0 0 0 0 0 2.05923e-10 
9.92112e-11 0 2.99214e-11 0 0 2.65404e-10 0 0 2.18956e-10 
0 0 0 0 2.68785e-08 0 0 3.7228e-11 0 
3.94317e-11 0 0 0 0 0 0 0 0 
0 0 0 0 0 0 0 0 0 
0 0 0 0 0 4.61706e-11 7.90821e-11 2.31001e-11 0 
0 4.5564e-12 0 0 0 0 0 0 0 
0 0 0 0 0 4.47664e-12 0 0 1.20802e-10 
0 1.54634e-11 1.58082e-10 1.0091e-10 0 0 0 0 0 
0 0 0 6.95228e-12 0 8.61092e-12 0 0 0 
0 0 6.04479e-12 1.04303e-10 0 0 0 0 3.13506e-11 
0 0 0 0 0 0 0 0 0 
0 9.9479e-11 0 0 0 0 0 1.207e-10 0 
0 0 0 0 0 0 0 0 0 
0 0 0 0 0 4.70743e-11 0 0 0 
0 0 0 0 0 0 2.71039e-08 0 0 
0 0 0 0 5.50071e-11 9.31628e-11 6.8448e-11 0 0 
0 0 0 0 0 0 0 0 0 
0 0 0 2.74074e-11 0 0 0 0 1.05582e-11 
0 0 0 4.25999e-11 0 1.50409e-10 0 0 0 
0 2.22478e-10 0 0 0 0 0 0 0 
0 0 0 0 3.01685e-11 0 0 0 0 
0 0 0 0 0 0 0 0 0 
0 0 0 0 0 0 0 0 0 
0 0 0 0 0 0 0 0 0 
0 0 0 0 0 0 0 0 0 
0 0 0 0 0 0 0 0 0 
0 0 5.10878e-11 1.16942e-11 0 0 0 2.75937e-11 0 
0 0 0 0 0 0 0 0 0 
0 1.73858e-10 0 0 9.85752e-12 0 0 0 0 
0 6.84753e-11 2.32396e-10 0 0 8.46061e-11 0 0 0 
4.65112e-11 0 0 0 0 0 0 0 0 
0 1.2978e-11 0 0 0 0 0 0 0 
0 0 0 7.74484e-11 8.00107e-11 0 0 0 0 
2.05698e-10 0 0 3.04192e-08 0 0 0 3.49473e-08 0 
0 0 0 1.90061e-10 0 0 0 0 1.87909e-10 
2.32668e-11 0 5.03876e-11 0 0 0 0 0 0 
6.77294e-11 0 0 0 0 0 1.50699e-11 0 0 
0 2.7524e-11 0 0 0 0 0 0 0 
2.14357e-11 0 0 0 8.05689e-11 0 0 0 5.39252e-11 
0 0 0 1.59966e-11 0 0 0 4.31226e-11 0 
0 0 0 0 0 0 0 2.42894e-10 3.84283e-11 
0 0 0 0 0 0 1.77549e-10 1.16073e-10 0 
0 0 0 0 0 0 0 0 0 
0 0 0 0 0 8.08283e-11 5.58179e-11 0 0 
0 0 0 0 0 0 0 0 0 
0 3.19528e-11 0 4.91408e-11 0 0 0 1.24081e-11 6.22335e-11 
0 0 0 0 0 0 0 0 0 
0 0 0 8.11914e-11 1.82468e-11 0 0 3.94023e-11 1.27126e-10 
0 0 0 0 0 0 0 0 0 
0 0 0 0 0 0 0 0 0 
0 0 0 0 0 0 0 0 0 
0 0 0 0 0 0 0 0 0 
0 0 0 0 0 0 0 0 0 
0 0 0 0 0 0 0 0 0 
0 4.91693e-11 0 9.97778e-11 0 6.41762e-11 0 0 0 
0 0 0 1.46652e-10 0 0 0 1.06297e-10 0 
0 0 0 0 0 0 2.07646e-10 0 0 
0 0 0 0 0 1.19481e-11 0 0 0 
0 0 0 0 0 0 1.12141e-10 0 0 
0 0 8.63402e-11 0 0 0 0 0 0 
0 0 0 0 0 8.27183e-11 0 1.66025e-10 0 
0 0 2.5026e-10 0 0 0 0 0 0 
0 0 0 0 2.63609e-08 0 0 3.49613e-12 0 
0 0 0 0 0 0 0 0 0 
0 6.37321e-11 0 0 0 0 0 0 1.06567e-11 
0 0 0 0 1.5688e-11 0 0 0 1.67441e-10 
0 0 0 0 1.32069e-10 0 0 7.65501e-12 0 
5.58888e-11 0 0 0 0 0 2.16687e-10 1.86256e-11 7.42457e-11 
7.42224e-11 1.03915e-10 0 0 0 0 1.3812e-10 0 0 
0 2.5007e-08 0 0 0 0 5.05372e-11 0 0 
0 2.10986e-10 0 0 0 0 2.84595e-08 0 0 
5.34381e-11 0 0 0 0 0 0 0 0 
0 0 1.26447e-11 0 0 0 0 0 0 
3.01853e-12 4.30963e-11 0 0 0 0 0 0 3.2524e-11 
8.35019e-12 0 0 0 0 0 0 0 0 
0 0 0 0 0 0 1.16854e-10 0 7.02956e-11 
3.85207e-11 0 0 0 0 0 0 0 0 
0 0 0 0 0 0 0 0 0 
0 0 0 0 0 0 0 0 0 
0 0 0 0 0 0 0 0 0 
0 0 0 0 0 0 0 0 0 
0 0 0 0 0 0 0 0 0 
0 6.45288e-11 0 0 0 0 0 9.0262e-11 0 
4.40202e-10 0 1.6349e-10 0 0 6.1336e-11 0 0 0 
0 3.86805e-08 3.88795e-08 0 0 0 0 0 0 
3.02003e-12 0 1.68055e-10 1.40807e-11 0 0 0 0 0 
0 0 0 0 0 0 0 0 0 
0 0 0 0 0 0 0 0 0 
0 1.28929e-11 0 0 0 0 0 0 0 
0 0 0 0 3.34909e-08 0 0 1.862e-10 0 
2.50058e-10 0 2.9219e-10 0 0 0 0 0 0 
0 0 0 0 0 7.05094e-11 0 0 0 
0 0 0 0 0 0 0 0 0 
0 0 0 0 0 0 0 0 0 
0 0 0 0 0 0 0 0 0 
0 0 0 1.2763e-10 0 0 8.79679e-12 1.59428e-10 0 
0 0 0 0 0 0 0 0 0 
0 8.63116e-11 1.38119e-11 0 1.83168e-10 6.83368e-11 0 2.16219e-10 0 
0 0 0 0 0 0 0 0 3.35856e-11 
0 0 0 0 0 0 0 0 0 
0 0 0 0 1.0585e-11 3.39201e-11 0 0 0 
0 0 0 0 2.49281e-10 0 0 1.43257e-10 0 
0 3.22629e-10 0 0 0 0 2.49226e-10 0 0 
0 0 0 0 0 0 0 0 1.78667e-11 
0 0 0 0 0 0 0 0 0 
0 0 0 0 0 0 0 0 0 
0 0 0 0 0 0 0 0 0 
0 0 0 0 0 0 0 0 0 
0 0 0 0 0 0 0 0 0 
0 0 0 0 0 0 0 0 0 
0 0 8.51998e-11 0 0 0 0 0 0 
0 0 0 0 0 0 8.24849e-11 0 0 
0 0 2.52173e-10 2.30516e-10 0 9.11583e-11 1.00068e-10 0 0 
0 0 4.42193e-11 0 0 0 0 0 0 
0 0 0 7.56065e-11 2.04843e-11 0 0 0 0 
0 0 7.78188e-11 0 0 0 0 0 0 
0 0 0 0 0 0 1.52628e-11 0 1.941e-11 
0 5.68227e-10 0 0 0 7.90048e-11 0 0 0 
5.82808e-11 0 0 0 0 0 0 0 0 
0 0 0 0 0 0 0 6.22049e-11 0 
0 0 0 0 0 0 0 0 0 
0 0 0 0 1.44168e-11 0 0 0 0 
0 0 0 0 0 0 0 0 0 
0 2.72849e-11 4.53217e-11 0 0 0 0 0 0 
0 0 0 1.16503e-10 0 0 0 0 0 
0 0 0 0 0 0 0 0 0 
3.73139e-11 0 0 2.23965e-10 0 0 0 0 0 
0 0 0 0 0 0 0 0 0 
0 0 0 0 0 0 0 0 0 
2.23536e-10 0 2.69061e-08 0 0 2.13237e-10 0 0 0 
0 0 5.4126e-11 0 0 2.80838e-11 0 0 0 
0 1.03691e-10 0 9.78339e-12 0 0 0 0 0 
0 0 0 0 0 0 0 0 0 
0 0 0 0 0 0 0 0 0 
0 0 0 0 0 0 0 0 0 
0 0 0 0 0 0 0 0 0 
0 0 0 0 0 0 0 0 0 
0 0 0 0 0 0 0 0 0 
0 2.62139e-11 0 0 0 2.68973e-08 0 3.03602e-10 1.2296e-10 
0 0 0 0 2.86188e-10 2.49345e-10 0 0 0 
0 1.87131e-10 0 0 0 0 0 0 0 
0 0 0 0 0 0 0 0 0 
0 0 0 4.80488e-11 1.06995e-10 9.69535e-11 0 3.40332e-10 0 
0 0 0 0 0 0 0 0 0 
0 0 4.18271e-12 1.00702e-10 2.15761e-11 0 0 0 0 
0 0 4.542e-11 0 1.09922e-10 5.56512e-12 1.635e-11 5.38451e-11 0 
1.06551e-10 0 0 1.9847e-11 4.68687e-12 0 0 0 0 
0 0 0 0 0 0 0 0 0 
0 0 0 0 0 0 3.92396e-11 0 0 
0 0 0 0 0 0 0 0 0 
0 0 0 0 0 0 0 0 5.43261e-12 
0 0 1.42121e-10 2.23979e-10 0 0 0 0 0 
0 0 0 8.49455e-11 0 4.47178e-11 2.02712e-11 0 1.83938e-11 
2.95078e-11 0 0 0 7.31655e-12 0 0 0 0 
2.07834e-10 0 0 0 1.03738e-10 0 0 0 0 
0 0 0 0 0 0 0 0 0 
0 0 0 0 0 0 0 0 0 
0 8.00568e-11 0 0 0 0 0 0 0 
0 0 0 2.6996e-11 3.95048e-11 1.43208e-10 0 3.12301e-08 0 
0 0 0 0 0 0 0 0 0 
0 0 0 0 0 0 0 0 0 
0 0 0 0 0 0 0 0 0 
0 0 0 0 0 0 0 0 0 
0 0 0 0 0 0 0 0 0 
0 0 0 0 0 0 0 0 0 
1.90034e-11 0 0 0 0 0 0 0 3.16865e-11 
0 0 0 0 3.21276e-10 0 3.55866e-12 0 1.054e-10 
0 4.50485e-11 0 1.92384e-10 0 0 0 0 0 
4.38331e-11 0 0 0 4.17582e-11 0 0 0 0 
0 0 0 0 0 0 0 1.33963e-10 0 
0 1.31669e-10 0 0 0 0 0 0 0 
0 0 0 0 0 3.15133e-11 0 0 0 
0 0 0 0 0 0 0 2.31955e-11 2.14177e-10 
0 0 0 0 0 0 0 0 0 
0 0 0 0 3.07093e-11 0 0 0 0 
0 3.846e-11 0 0 0 0 0 0 2.31417e-11 
0 0 6.52546e-11 0 0 0 0 0 0 
0 0 0 0 0 0 0 0 9.85865e-11 
0 0 0 0 0 0 0 0 0 
0 0 0 0 0 0 3.47844e-11 0 0 
0 1.018e-10 0 0 0 0 0 0 0 
1.09351e-10 0 0 0 0 0 0 0 0 
0 2.65791e-08 0 0 0 0 0 5.45625e-11 0 
0 0 0 0 0 0 0 0 1.22941e-11 
0 0 0 0 1.25924e-10 0 0 0 3.62783e-10 
0 0 0 1.33128e-10 0 0 1.43438e-10 8.18007e-12 0 
0 0 6.05687e-11 0 0 0 0 0 0 
0 0 0 0 0 0 0 0 0 
0 0 0 0 0 0 0 0 0 
0 0 0 0 0 0 0 0 0 
0 0 0 0 0 0 0 0 0 
0 0 0 0 0 0 0 0 0 
0 0 0 0 0 0 0 0 0 
0 0 0 0 0 0 1.44296e-10 0 0 
0 0 8.81841e-11 0 0 9.03568e-12 0 0 0 
0 0 0 0 0 0 0 0 0 
0 0 0 7.78288e-11 0 0 0 2.55993e-11 0 
0 0 0 0 0 0 0 0 0 
0 0 3.12512e-10 2.72522e-08 0 0 0 0 0 
0 0 0 0 0 0 0 0 0 
0 0 0 0 0 0 0 0 0 
0 0 0 0 0 0 0 0 0 
0 9.13718e-11 0 0 0 0 2.65916e-08 0 1.46094e-10 
0 0 0 0 0 0 4.2701e-11 0 0 
0 0 0 0 0 0 0 4.77047e-11 0 
1.01131e-10 0 0 2.75099e-08 0 0 0 0 0 
2.17615e-11 0 0 0 0 0 0 0 0 
0 0 0 0 0 0 9.76102e-11 0 0 
0 0 0 0 0 0 0 1.53897e-10 0 
0 0 0 0 1.26396e-10 5.61949e-12 0 0 0 
0 4.13042e-11 0 2.35831e-11 0 0 0 0 0 
0 0 0 0 4.4762e-11 0 0 0 0 
0 0 6.5596e-11 9.9239e-11 0 0 0 6.57273e-11 0 
0 0 0 0 0 0 0 0 0 
0 0 3.24371e-08 0 2.09282e-10 0 1.37963e-10 6.26963e-11 0 
0 0 0 0 0 0 0 0 0 
0 0 0 0 0 0 0 0 0 
0 0 0 0 0 0 0 0 0 
0 0 0 0 0 0 0 0 0 
0 0 0 0 0 0 0 0 0 
0 0 0 0 0 0 0 0 0 
5.99919e-11 7.46358e-11 0 0 0 0 0 0 2.67602e-11 
1.74257e-10 0 0 0 0 0 0 0 0 
0 1.60557e-10 0 1.9755e-10 0 0 0 1.64392e-11 0 
0 0 0 0 0 0 0 0 3.62041e-11 
0 0 0 0 2.58885e-08 0 0 4.91317e-10 0 
0 0 0 0 0 0 0 0 0 
0 0 0 0 2.71152e-08 0 0 0 0 
0 0 1.21105e-10 0 0 0 0 0 1.2284e-11 
0 0 0 0 0 0 0 2.2916e-11 0 
2.46383e-11 2.05184e-10 0 0 0 0 0 0 0 
0 0 0 0 0 0 0 0 0 
0 0 0 0 0 0 0 0 0 
0 0 0 0 4.86539e-11 0 0 0 0 
0 0 0 0 2.50076e-11 0 3.21838e-11 0 2.60553e-08 
8.72965e-11 9.16799e-11 0 8.38186e-12 0 0 0 1.72665e-11 0 
0 0 0 0 0 0 0 0 0 
0 0 0 0 0 0 0 0 0 
0 0 0 0 5.96835e-11 0 0 0 0 
0 0 0 0 0 0 0 0 0 
0 0 0 0 0 0 0 0 0 
0 0 0 0 0 1.35805e-10 4.94702e-11 0 0 
0 0 0 3.671e-11 1.04743e-10 0 0 0 0 
0 0 0 0 0 0 0 0 0 
0 0 0 0 0 0 0 0 0 
0 0 0 0 0 0 0 0 0 
0 0 0 0 0 0 0 0 0 
0 0 0 0 0 0 0 0 0 
0 0 1.68327e-12 0 0 0 3.85417e-11 0 0 
9.10988e-11 0 1.73327e-10 2.63146e-08 0 0 0 4.10224e-11 0 
0 0 5.3929e-11 0 0 7.13134e-12 0 1.15436e-10 0 
0 0 0 3.29398e-11 0 0 0 0 0 
0 0 0 0 0 0 0 0 0 
0 0 0 0 0 5.62984e-12 0 0 0 
0 1.74913e-10 0 0 0 0 0 3.13233e-10 1.14696e-10 
0 0 0 0 0 0 0 0 0 
0 0 0 0 0 0 0 4.3489e-11 0 
0 0 0 0 0 0 0 0 0 
0 0 0 0 0 0 0 0 0 
0 2.99689e-12 0 0 0 0 0 0 0 
2.84503e-11 0 0 0 0 0 0 0 0 
1.25652e-10 0 6.70049e-11 1.92641e-10 0 0 0 0 7.83805e-11 
8.23376e-11 0 0 0 0 0 2.51079e-10 0 1.20929e-10 
0 0 9.1051e-11 0 8.1927e-11 0 1.36597e-10 0 0 
0 0 0 0 0 0 0 0 2.91936e-11 
0 0 0 0 0 0 0 0 0 
0 0 0 0 0 0 0 0 0 
0 0 0 0 0 0 0 0 2.73651e-08 
0 0 0 0 0 8.79441e-11 0 2.92311e-08 0 
0 0 1.4326e-10 1.22059e-11 0 2.97206e-10 0 0 2.13094e-10 
0 0 0 9.68239e-11 0 0 0 0 0 
0 0 0 0 0 0 0 0 0 
0 0 0 0 0 0 0 0 0 
0 0 0 0 0 0 0 0 0 
0 0 0 0 0 0 0 0 0 
0 0 0 0 0 0 0 0 1.81843e-11 
0 0 0 2.54472e-11 0 0 0 0 0 
0 0 5.16433e-10 2.42115e-11 0 0 0 0 0 
0 0 0 0 1.16199e-10 0 0 0 0 
0 0 0 3.47407e-11 0 0 0 0 0 
0 0 0 0 0 7.38119e-11 6.7913e-11 0 0 
9.05181e-11 6.08647e-12 0 0 0 0 2.44428e-10 1.37503e-10 0 