# vtk DataFile Version 5.1
vtk output
ASCII
DATASET STRUCTURED_POINTS
DIMENSIONS 50 50 1
SPACING 1 1 1
ORIGIN 0 0 0
POINT_DATA 2500
FIELD FieldData 6
feature_1 1 2500 float
0 0 0 1.51185e-10 0 0 0 0 0 
0 0 0 0 0 0 0 0 0 
0 0 0 0 0 0 0 0 0 
0 0 0 0 0 0 0 0 0 
0 0 0 0 0 0 0 0 0 
0 0 0 0 0 0 0 0 0 
0 0 0 0 0 0 0 0 0 
0 0 0 0 2.78825e-10 0 0 0 0 
0 0 0 0 0 0 0 0 0 
0 0 0 0 0 0 0 0 0 
0 0 0 0 0 0 0 0 0 
0 0 0 0 0 0 0 0 0 
0 0 0 0 0 0 0 0 0 
0 0 0 0 0 0 0 0 0 
0 0 0 0 0 0 0 0 0 
0 0 0 0 0 0 0 0 0 
0 0 0 0 0 0 0 0 0 
0 0 0 0 0 0 0 0 0 
0 0 0 0 0 0 0 0 0 
0 0 0 0 0 0 0 0 1.63396e-10 
0 1.29837e-10 0 0 0 0 0 0 1.4763e-10 
0 0 0 0 0 0 0 0 0 
0 0 0 0 0 1.22723e-10 0 0 0 
0 0 0 0 0 0 0 0 0 
0 0 0 0 0 0 0 0 0 
0 0 1.40386e-09 0 0 0 0 0 0 
0 1.03528e-10 0 0 0 0 0 0 0 
0 0 0 0 9.83059e-11 0 0 0 0 
0 0 0 0 0 0 0 0 0 
0 0 0 0 0 0 0 0 0 
0 0 0 0 0 0 0 0 0 
0 0 0 0 0 0 0 0 0 
0 0 0 0 0 0 0 0 0 
0 0 0 0 0 0 0 0 0 
0 0 0 2.89838e-09 0 0 0 0 0 
0 0 7.24853e-09 0 0 0 0 0 0 
0 0 0 0 0 0 0 0 0 
0 0 0 0 0 0 0 0 0 
0 0 0 0 0 0 0 0 0 
0 0 0 0 0 0 0 0 0 
0 0 0 0 0 0 0 0 6.67123e-08 
0 0 0 0 0 0 1.38134e-08 0 6.33548e-06 
0 6.16841e-09 0 0 0 0 0 0 0 
0 0 0 0 0 0 0 0 0 
0 0 0 0 0 0 0 0 0 
0 0 1.75159e-08 6.34111e-06 0 0 0 0 0 
0 0 7.05033e-09 0 6.35495e-06 0 0 0 0 
0 0 6.42724e-09 1.51015e-08 0 0 3.75826e-09 0 0 
0 0 0 0 0 0 0 0 0 
0 0 0 0 0 0 0 0 0 
0 0 0 0 0 0 0 2.51782e-09 0 
0 0 0 0 0 0 0 0 0 
1.07722e-08 0 0 0 0 0 0 0 0 
0 0 0 0 2.17452e-10 0 0 0 0 
0 3.56812e-09 0 0 0 0 0 0 0 
0 0 0 0 0 0 0 0 0 
0 0 0 0 0 0 0 0 3.10199e-08 
2.67904e-09 0 0 6.71273e-06 0 1.04551e-08 0 0 0 
0 0 0 0 0 0 1.30123e-09 0 0 
0 0 2.49618e-08 0 5.10811e-09 0 0 0 0 
6.42257e-06 0 0 0 0 0 0 0 0 
0 0 0 0 0 0 0 0 0 
0 0 6.71535e-06 1.90296e-08 0 6.56536e-06 0 6.87068e-06 0 
8.98227e-09 0 0 0 0 0 6.42659e-11 0 0 
0 6.3292e-09 0 0 8.33261e-09 0 7.54847e-06 7.82212e-06 0 
0 0 6.43743e-06 0 0 3.92946e-08 0 0 0 
0 0 0 0 0 0 0 0 0 
0 0 0 3.31481e-10 0 0 6.6889e-06 0 0 
0 0 0 0 5.2021e-09 0 3.64447e-09 0 0 
0 1.48736e-09 1.4329e-08 0 0 0 0 0 0 
1.42196e-09 0 0 0 6.76902e-06 0 0 0 0 
6.47954e-06 0 0 0 0 0 0 0 0 
0 0 0 0 0 0 0 0 0 
0 0 0 0 0 0 0 0 0 
0 0 0 0 0 0 4.35805e-09 0 6.36542e-06 
0 6.75452e-11 6.36344e-06 0 2.2769e-09 0 0 0 0 
0 0 0 3.28878e-10 0 0 0 0 0 
0 0 0 0 0 0 0 0 0 
0 0 0 0 0 0 4.68786e-09 0 0 
0 0 0 0 0 4.17462e-09 0 0 0 
0 0 0 0 2.68191e-08 0 0 8.29943e-09 7.57001e-09 
0 1.45137e-08 0 0 0 4.46541e-09 0 2.96225e-10 0 
0 0 0 0 0 2.93005e-10 0 0 0 
0 0 0 0 0 0 0 0 0 
0 0 0 0 1.57216e-08 6.47246e-06 0 2.23987e-07 6.89827e-06 
0 7.70614e-09 0 0 0 0 0 0 0 
0 0 0 0 0 0 0 6.42645e-06 4.22804e-08 
0 0 0 0 0 0 0 0 0 
0 0 0 0 0 0 0 0 0 
0 0 0 0 0 0 0 0 0 
0 0 0 7.12278e-06 0 0 0 0 0 
0 0 6.35747e-06 0 0 0 0 0 0 
0 0 0 1.59606e-10 0 0 0 0 0 
0 0 0 0 0 0 0 0 0 
0 0 0 0 0 0 0 0 0 
0 0 0 0 0 0 0 0 0 
6.96001e-06 0 0 0 0 0 0 0 0 
0 0 0 0 0 0 0 0 0 
7.56303e-06 0 0 0 5.2223e-07 0 0 0 0 
0 0 0 0 0 0 0 0 0 
0 0 0 0 0 0 0 0 0 
2.16505e-09 0 6.39636e-06 0 0 0 4.43153e-08 0 0 
0 0 0 0 0 0 6.52796e-06 0 6.51924e-06 
0 0 0 0 0 7.55601e-06 0 0 7.00146e-06 
0 7.05674e-06 0 0 0 0 0 0 0 
0 0 0 0 0 0 0 0 0 
0 0 0 0 0 0 0 0 0 
2.10831e-10 0 6.61688e-06 0 6.75237e-06 0 8.01287e-06 8.65197e-06 0 
0 9.30236e-09 0 5.79001e-08 0 9.54183e-09 0 0 0 
0 0 0 0 0 7.45464e-06 1.37606e-08 0 0 
0 0 0 0 0 0 0 0 0 
0 0 0 0 0 0 0 0 0 
0 0 0 0 0 3.11968e-10 0 0 0 
0 0 0 7.83618e-06 2.66543e-08 0 4.96825e-09 0 0 
0 4.21671e-09 6.79787e-10 0 0 0 0 0 6.92244e-06 
0 0 6.94053e-06 0 0 0 0 0 0 
0 0 0 0 0 0 0 0 0 
0 0 0 0 0 0 9.7221e-09 0 0 
0 0 1.30651e-08 0 0 0 0 7.96311e-10 3.93478e-08 
0 0 0 0 0 0 0 0 0 
0 6.62572e-06 0 7.03638e-06 0 0 0 1.95931e-08 0 
0 0 0 0 0 0 0 0 0 
0 0 0 0 0 0 0 0 1.66634e-08 
7.47284e-06 7.47329e-06 0 1.29566e-08 0 5.10996e-11 0 6.35307e-06 0 
9.94523e-09 0 0 0 3.3407e-08 0 0 0 0 
0 0 0 2.13648e-10 0 1.46496e-08 0 0 0 
0 0 0 0 0 4.92722e-09 0 0 7.20303e-11 
0 0 0 0 0 0 0 0 0 
0 0 0 0 1.61928e-08 0 0 0 0 
4.92429e-11 1.45004e-09 0 4.08325e-08 0 0 2.09084e-08 6.41912e-06 0 
0 0 1.46057e-09 0 0 0 6.70718e-06 0 0 
4.68869e-09 0 0 6.67249e-06 0 6.65481e-06 0 0 6.39453e-06 
0 0 0 0 0 0 0 0 0 
0 0 0 0 0 0 0 0 0 
1.99036e-09 0 0 0 0 0 0 1.7211e-09 4.69657e-09 
0 0 0 0 0 0 0 0 0 
5.4441e-11 0 0 6.72654e-06 6.82519e-09 0 0 0 0 
0 0 0 0 2.70796e-08 0 0 0 0 
0 0 0 0 0 0 0 0 0 
6.26517e-11 0 0 0 0 0 0 0 0 
0 0 0 0 0 0 0 0 0 
6.49676e-06 1.47304e-08 0 0 0 7.65215e-06 0 1.28244e-10 0 
0 0 0 0 0 0 0 0 0 
0 0 0 4.41148e-09 0 0 0 0 0 
0 0 0 0 0 0 0 0 0 
0 0 0 0 0 0 0 0 0 
0 0 0 0 0 0 0 0 7.02505e-06 
0 8.02451e-06 0 0 0 0 0 0 0 
0 0 0 0 0 0 0 0 0 
0 0 0 0 0 0 0 0 0 
0 0 0 0 0 0 0 0 0 
0 0 0 0 0 0 0 0 0 
0 0 6.51361e-06 0 0 7.13248e-06 0 0 0 
6.46093e-06 1.89201e-08 0 0 0 0 0 0 0 
0 0 0 6.6321e-09 6.33909e-06 2.61698e-08 0 0 0 
0 0 0 0 0 0 0 0 0 
0 0 0 0 0 3.56154e-10 0 0 0 
0 0 0 0 0 0 0 0 0 
0 0 1.87565e-08 0 0 0 8.86758e-09 6.59354e-06 0 
6.53128e-06 0 0 0 6.35998e-06 0 0 0 0 
0 1.27264e-09 2.89964e-09 0 0 0 0 0 0 
0 0 0 0 0 0 0 0 0 
6.42999e-06 4.44608e-08 0 0 6.43199e-06 0 0 0 0 
0 0 0 0 0 0 0 0 0 
0 0 1.10149e-08 1.72775e-08 0 0 0 0 0 
0 2.45608e-10 0 0 0 0 0 0 0 
0 0 0 0 0 0 0 0 0 
0 0 0 0 0 0 0 7.61915e-06 0 
0 0 0 0 0 0 2.34629e-08 0 4.14666e-09 
0 0 0 0 0 0 0 0 2.7749e-09 
0 2.34518e-09 2.53479e-08 6.37284e-06 0 0 0 0 0 
0 0 5.25482e-10 0 0 0 0 0 0 
1.48887e-11 0 2.79796e-11 0 0 3.35998e-10 0 0 0 
0 0 0 7.51223e-06 0 0 0 0 0 
0 0 0 6.35201e-06 0 0 0 0 0 
0 0 0 0 0 0 0 0 0 
0 6.60675e-10 1.41788e-09 9.01303e-09 0 0 0 0 0 
0 0 0 0 0 0 0 0 0 
0 0 0 0 0 0 3.43762e-09 0 2.71979e-09 
0 0 0 0 0 0 0 0 0 
0 0 0 0 0 0 0 0 0 
1.13658e-08 0 0 0 0 0 0 2.66612e-09 0 
6.75681e-06 0 0 0 0 0 0 0 0 
0 0 0 0 0 0 0 0 0 
0 3.26543e-09 5.57098e-09 0 0 1.09273e-09 0 6.34608e-06 4.21152e-09 
6.75085e-09 0 0 0 0 0 0 0 0 
0 0 0 0 0 6.34164e-06 3.54208e-08 0 0 
0 0 0 0 6.70777e-06 0 0 6.4365e-06 2.88991e-08 
0 0 0 0 0 0 0 0 0 
0 0 0 0 0 3.15364e-09 0 0 0 
0 0 0 0 0 0 0 0 6.43833e-06 
4.64695e-08 0 0 0 0 0 6.42539e-08 0 0 
1.4848e-08 0 0 6.3831e-10 0 0 0 0 8.97872e-09 
2.76812e-08 0 0 5.01048e-08 1.47297e-08 0 0 0 0 
0 0 0 0 0 0 0 0 0 
0 0 0 6.33784e-06 0 0 0 0 0 
0 0 7.54927e-06 0 0 0 0 0 0 
4.12876e-09 0 6.51233e-06 2.65882e-08 0 0 0 0 0 
0 0 0 0 0 0 0 0 0 
2.48836e-10 0 0 0 0 0 0 0 0 
0 0 0 0 0 0 0 0 0 
0 0 0 0 0 0 0 7.49192e-06 0 
0 0 1.2631e-09 0 7.48677e-06 7.55601e-06 0 0 0 
6.5343e-06 0 0 0 0 0 0 0 0 
0 0 0 0 0 0 0 0 0 
0 0 0 0 0 0 0 0 0 
0 0 0 0 0 0 0 0 0 
0 5.0062e-09 1.10526e-08 0 0 1.38622e-09 1.2037e-09 0 0 
0 0 0 0 0 0 0 6.41318e-09 0 
0 0 0 0 0 0 0 0 0 
2.78972e-11 0 0 2.9422e-10 0 0 0 0 0 
0 0 0 0 0 0 0 0 0 
0 0 0 0 0 0 0 0 0 
0 0 0 0 0 0 0 0 0 
7.86292e-06 0 0 6.74442e-06 0 0 0 0 0 
0 0 0 1.44467e-11 0 0 0 0 0 
1.04264e-09 0 0 0 0 0 0 0 0 
0 0 0 0 0 2.40626e-08 6.36934e-06 0 8.08907e-09 
6.55031e-06 0 0 0 0 0 0 0 0 
0 0 2.15804e-08 0 9.06371e-07 8.2389e-06 0 6.98286e-06 0 
0 0 0 0 0 0 0 0 1.2859e-08 
0 0 0 0 8.05921e-09 0 0 0 0 
0 0 0 0 0 0 0 0 0 
5.03822e-10 0 0 1.31174e-08 0 3.10181e-08 0 0 0 
0 0 0 2.59998e-10 0 0 0 6.40774e-06 1.76695e-08 
0 0 0 0 0 0 0 1.0661e-08 0 
0 7.62336e-06 0 0 0 6.45904e-06 0 0 6.43483e-06 
0 0 0 0 0 0 0 0 0 
0 0 0 0 0 2.9597e-10 0 0 0 
3.36813e-08 6.52543e-06 1.59471e-08 0 0 0 0 0 0 
0 1.09215e-09 2.87782e-08 4.0739e-09 0 0 0 0 0 
7.04452e-08 8.50122e-10 0 0 6.60027e-06 0 7.84333e-06 4.56651e-09 6.6745e-06 
0 0 0 3.61346e-09 0 0 0 0 0 
0 0 0 0 0 1.82792e-11 0 0 0 
0 0 0 0 0 0 1.16858e-08 0 0 
0 0 0 0 0 0 0 0 0 
2.12173e-09 0 0 0 0 6.35485e-06 0 0 0 
1.71899e-08 0 0 0 0 0 6.54125e-09 6.86923e-08 6.42808e-06 
0 5.91861e-10 5.27798e-09 0 0 0 0 0 0 
0 0 0 0 0 0 0 0 0 
0 0 4.47559e-09 0 0 0 0 0 0 
0 0 0 0 0 0 0 0 2.98603e-09 
0 0 4.5468e-10 3.28054e-09 0 0 0 4.6916e-09 0 
0 1.20025e-08 0 0 8.61092e-09 0 0 0 0 
0 0 0 0 0 0 0 0 0 
0 0 0 0 0 3.71414e-11 0 0 0 
0 0 0 0 0 0 0 0 0 
0 0 0 0 0 0 0 0 0 
0 0 2.57146e-09 4.08518e-09 0 0 0 0 3.34972e-09 
0 6.91558e-09 7.2266e-10 0 0 0 0 0 0 
0 0 0 0 0 0 0 0 0 
0 0 0 0 0 0 0 0 0 
0 0 0 0 0 0 0 0 0 
0 0 0 0 0 0 0 0 0 
0 0 0 0 0 1.661e-09 0 0 0 
0 0 0 0 0 0 0 0 0 
0 0 0 0 0 0 0 0 0 
0 0 0 0 0 0 0 0 0 
0 0 0 0 0 0 0 0 0 
0 0 0 0 0 0 0 0 0 
0 0 0 0 0 0 0 0 0 
0 0 0 0 0 0 0 0 0 
0 0 0 0 0 0 0 0 0 
0 0 0 0 0 0 0 0 0 
0 0 0 0 0 0 0 0 0 
0 0 0 0 0 0 0 0 0 
0 0 0 0 3.02974e-10 0 0 0 0 
0 0 0 0 0 0 0 0 0 
0 0 0 0 0 0 0 0 0 
0 0 0 0 0 0 0 0 0 
0 0 0 0 0 0 0 0 0 
0 0 0 0 0 0 0 0 0 
0 0 0 0 0 0 0 0 0 
0 0 0 0 0 0 0 0 0 
0 0 0 0 0 0 0 0 0 
0 0 0 0 0 0 0 0 0 
0 0 0 0 0 0 0 0 0 
0 0 0 0 0 0 0 
feature_2 1 2500 float
0 0 0 0 0 0 0 0 0 
0 0 0 0 0 0 0 0 0 
0 0 0 0 0 2.25302e-10 8.77236e-09 0 4.63433e-09 
0 0 0 0 0 0 1.37707e-08 0 1.57198e-10 
0 0 0 0 0 0 0 0 0 
0 0 0 0 0 0 0 0 0 
0 0 0 0 0 0 0 0 0 
0 0 0 0 0 0 0 0 0 
0 0 0 0 0 0 0 0 0 
0 0 0 0 0 0 0 0 0 
0 0 0 0 0 0 0 1.55684e-10 0 
0 0 0 0 0 0 0 0 0 
0 0 0 0 0 0 0 0 0 
0 0 0 0 0 0 0 0 0 
0 0 0 0 0 0 0 0 0 
0 0 0 0 0 0 0 1.23163e-08 0 
0 0 0 0 0 0 0 0 0 
0 0 0 0 0 0 0 8.28852e-10 7.49888e-09 
0 0 0 0 8.87371e-10 0 0 0 0 
0 0 0 0 0 0 0 0 8.33712e-09 
0 0 0 0 0 0 0 0 0 
0 0 0 0 0 0 0 0 2.98958e-08 
0 0 0 0 0 0 0 0 9.27852e-10 
0 0 0 6.45079e-09 0 0 4.05258e-10 0 0 
7.57102e-09 0 7.49794e-09 0 0 0 0 0 0 
0 0 0 0 0 0 1.26459e-08 0 0 
0 0 0 0 0 0 0 0 0 
0 0 1.64004e-08 0 0 0 0 0 0 
0 0 0 0 1.64773e-08 0 0 0 0 
0 0 0 0 0 0 0 0 0 
0 0 0 0 0 0 0 0 0 
0 0 0 0 0 0 0 0 0 
0 0 0 0 0 0 0 0 0 
0 0 0 0 0 8.16351e-10 0 0 0 
0 0 0 0 0 0 0 0 0 
0 0 0 0 0 0 0 0 0 
0 0 9.89808e-09 0 1.96389e-10 0 0 0 0 
3.73515e-10 0 0 0 0 0 8.35775e-09 7.37445e-09 0 
0 0 0 0 0 0 0 0 0 
0 8.65401e-09 1.1133e-08 0 0 0 0 0 0 
0 0 0 0 0 0 0 0 0 
0 0 0 0 0 0 0 0 5.1803e-09 
0 0 0 0 0 0 0 0 0 
0 0 0 0 0 0 0 0 0 
0 0 0 0 0 0 1.37223e-08 0 0 
0 0 0 9.3093e-08 0 0 0 0 0 
0 0 0 0 1.15085e-08 0 0 0 0 
0 0 0 0 1.22553e-11 0 0 0 0 
0 0 0 0 0 0 0 0 0 
0 0 0 0 0 0 0 0 0 
0 0 4.7568e-10 0 0 0 0 0 0 
0 0 0 0 0 0 0 0 0 
0 0 0 0 0 0 0 0 0 
0 0 1.70683e-08 0 0 0 0 0 0 
0 0 0 0 0 0 0 0 0 
0 7.47987e-09 0 0 0 0 0 0 0 
0 0 0 0 0 0 0 0 0 
0 1.06644e-10 0 0 0 0 0 0 0 
0 0 0 0 0 0 0 0 0 
0 0 0 0 0 0 0 0 0 
0 0 0 8.93291e-09 0 0 0 0 0 
0 0 0 0 0 0 0 0 0 
0 0 0 0 0 0 0 0 0 
0 0 3.48202e-09 3.57057e-10 0 0 0 0 0 
0 0 0 0 0 0 0 0 0 
0 0 0 0 0 0 0 0 0 
0 0 0 0 0 0 0 0 0 
0 0 0 0 0 2.80552e-10 0 0 0 
0 0 0 0 0 0 0 0 0 
0 4.4425e-09 0 0 0 0 0 0 0 
0 0 0 0 0 0 0 0 0 
0 0 0 0 0 0 0 0 0 
0 0 0 0 0 0 0 0 0 
0 0 0 0 0 0 0 2.42106e-10 0 
0 0 0 0 0 0 0 0 0 
0 0 0 0 0 0 0 0 0 
0 0 0 0 0 0 0 0 0 
0 0 0 0 0 0 0 0 0 
1.27885e-08 0 0 0 0 0 0 0 0 
0 0 0 0 0 0 0 0 0 
0 0 0 0 0 0 0 0 0 
0 0 0 0 0 0 0 0 0 
0 0 0 0 0 0 1.88005e-08 0 1.27451e-11 
0 6.29043e-09 0 0 7.02338e-11 0 0 0 0 
0 0 0 0 0 0 0 5.86205e-07 3.19892e-07 
0 0 0 0 0 2.02072e-10 0 0 0 
0 0 0 0 0 0 0 0 0 
0 0 0 0 6.68923e-09 0 0 0 0 
0 0 0 0 0 0 0 0 0 
0 0 0 0 0 0 0 0 0 
0 0 0 0 0 0 0 0 0 
0 0 0 0 0 0 0 0 0 
0 0 0 0 0 0 0 0 0 
0 0 0 0 1.58352e-08 0 0 0 0 
0 0 0 0 0 0 0 0 0 
0 0 0 0 0 0 0 0 0 
0 0 0 0 0 0 0 0 0 
0 0 0 0 0 0 0 0 0 
0 0 0 0 0 0 0 0 0 
0 0 0 0 0 0 0 0 0 
0 0 0 0 1.6231e-08 0 0 0 0 
0 0 0 0 0 0 0 0 0 
0 0 0 0 0 0 4.98739e-10 0 0 
0 0 0 0 0 0 0 0 0 
0 0 0 0 0 0 0 0 0 
0 0 0 0 0 0 0 0 0 
0 0 0 0 0 0 0 0 0 
0 0 0 0 0 0 0 0 0 
0 0 0 0 0 0 0 0 0 
0 0 0 6.25817e-11 0 0 0 0 0 
0 0 0 0 0 0 0 0 9.01397e-09 
0 0 0 0 0 0 0 0 0 
0 0 0 0 0 0 0 0 0 
0 0 0 0 0 0 0 0 0 
0 0 0 0 0 0 0 0 0 
0 0 0 0 0 0 0 2.79067e-10 0 
0 1.65607e-08 0 0 0 0 0 0 0 
0 0 5.76277e-09 0 0 0 0 0 0 
0 0 0 0 0 0 0 0 0 
0 0 0 0 0 0 0 0 0 
0 0 0 0 0 0 0 0 0 
0 9.84921e-09 0 0 0 0 0 0 0 
0 1.65172e-08 0 0 0 0 0 0 0 
0 0 0 0 0 0 0 0 0 
0 0 0 0 0 0 0 0 0 
0 0 1.01261e-08 0 0 0 0 0 0 
0 0 0 0 0 0 0 0 0 
0 0 0 0 0 0 0 0 0 
0 0 0 0 0 0 0 0 0 
0 0 0 0 0 0 0 0 0 
0 0 0 0 0 0 0 0 0 
0 4.58464e-09 0 0 0 0 0 0 0 
0 0 0 0 0 0 0 0 0 
0 0 0 0 0 4.03087e-09 0 6.3253e-09 0 
0 0 0 0 0 1.50138e-08 0 0 0 
0 0 0 0 0 0 0 0 0 
0 0 0 0 0 0 0 0 0 
0 0 0 0 0 0 0 0 0 
0 0 0 0 0 0 0 0 0 
0 0 0 0 0 0 0 0 0 
0 0 0 0 0 0 0 0 0 
0 0 3.49707e-10 0 0 0 0 0 0 
0 0 0 0 7.60473e-09 9.94502e-09 0 0 0 
0 0 8.34164e-09 0 5.96809e-09 0 0 0 0 
0 0 0 0 0 0 0 0 0 
0 0 0 0 0 0 0 0 0 
0 0 0 0 0 0 0 0 0 
9.80734e-10 0 0 0 0 0 0 0 0 
0 0 0 0 0 0 0 0 0 
0 0 0 2.05363e-10 0 0 0 0 0 
0 0 0 0 0 0 0 0 0 
0 0 0 0 0 0 0 0 0 
0 0 0 0 0 0 0 0 0 
0 0 0 0 0 0 0 5.53037e-09 0 
0 0 0 1.08453e-08 1.23716e-08 0 0 0 0 
0 0 0 0 0 0 0 0 0 
0 0 0 0 0 0 0 0 0 
0 0 0 0 0 0 0 0 0 
0 0 0 0 1.07887e-08 0 0 0 0 
0 0 0 0 0 0 0 0 0 
0 0 0 0 0 0 0 0 0 
0 0 0 0 0 0 0 0 0 
0 0 0 0 0 0 0 1.04123e-08 0 
0 0 0 0 0 0 0 0 0 
0 8.96019e-09 0 0 0 0 0 0 0 
0 0 0 0 0 0 0 0 0 
0 0 0 0 0 0 0 0 0 
0 2.19366e-10 0 0 0 0 0 0 0 
0 0 0 0 0 0 0 0 0 
0 0 0 0 0 0 0 0 0 
0 0 0 0 0 0 0 0 0 
0 0 0 0 0 0 0 0 0 
2.76918e-10 0 0 9.11893e-09 2.14379e-10 0 0 0 0 
9.02826e-09 0 0 0 0 0 0 0 0 
0 0 0 0 0 0 0 9.57641e-09 0 
0 0 1.28063e-08 0 0 0 0 0 0 
0 0 0 0 0 0 0 0 0 
0 0 0 0 0 0 0 0 0 
0 0 0 0 0 1.0715e-08 0 0 0 
0 0 0 0 0 0 0 0 0 
0 0 0 0 0 1.00607e-10 0 0 0 
0 0 0 0 0 0 0 0 0 
0 0 0 0 0 0 0 0 0 
0 0 0 1.70047e-08 0 0 0 0 0 
0 0 0 0 6.85055e-09 0 0 0 0 
0 0 0 0 0 0 0 0 0 
0 4.10806e-09 0 0 0 0 1.51824e-08 0 1.22814e-08 
0 0 0 0 0 0 0 0 0 
0 0 1.65759e-08 0 0 0 0 0 0 
0 0 0 0 0 0 0 0 0 
0 0 0 0 0 0 0 0 0 
0 0 0 0 0 0 0 0 0 
0 0 0 1.29652e-08 0 0 0 0 0 
0 0 7.26078e-09 0 0 0 2.01521e-08 0 0 
0 7.80943e-11 0 0 0 0 0 0 0 
5.48692e-09 0 0 0 0 0 0 0 0 
0 0 0 0 7.83917e-09 0 0 0 0 
0 0 0 0 0 0 0 0 0 
0 0 0 0 0 0 9.65552e-09 0 0 
0 0 0 0 0 0 6.06372e-09 0 1.14227e-08 
0 0 0 0 0 0 0 0 0 
2.05569e-10 5.33873e-09 0 0 0 0 0 0 0 
0 0 0 0 0 0 0 0 0 
0 0 0 0 1.80518e-10 0 0 0 0 
0 0 0 0 0 0 0 0 0 
0 0 0 0 0 0 0 8.91987e-09 1.88977e-08 
0 0 0 0 0 0 0 0 0 
0 0 0 0 0 0 0 0 0 
0 0 0 0 0 0 0 4.6704e-09 0 
0 0 0 0 0 9.36016e-09 7.22856e-09 0 0 
0 0 0 0 0 0 0 0 0 
0 0 0 3.07326e-10 0 0 0 0 0 
0 0 0 0 0 0 0 0 0 
6.7858e-09 0 0 0 0 0 0 0 0 
0 0 0 0 0 0 0 0 0 
0 0 0 0 0 0 2.17538e-11 0 0 
0 0 5.06707e-11 2.1464e-08 0 0 0 0 0 
0 0 0 1.10495e-08 0 1.30952e-08 0 0 0 
0 0 0 3.08943e-08 0 0 0 0 0 
0 4.39163e-09 0 0 0 0 0 0 0 
0 0 0 0 0 0 0 0 0 
0 0 0 0 1.14455e-10 0 0 0 0 
0 0 0 1.35828e-08 0 0 0 0 0 
0 0 0 0 0 0 0 0 0 
0 0 0 0 0 0 0 0 0 
0 0 0 0 0 0 0 0 0 
0 0 0 0 0 0 0 0 0 
0 0 0 5.39803e-10 1.77425e-08 5.38359e-09 0 0 0 
0 0 0 0 0 0 0 0 0 
0 0 0 0 0 0 0 0 0 
0 0 1.54253e-08 0 0 0 0 0 0 
0 0 0 0 0 0 0 0 0 
0 3.78757e-11 0 4.09665e-09 0 0 0 0 0 
0 4.26573e-10 0 0 0 0 0 0 1.80913e-08 
0 0 0 0 0 0 0 0 0 
4.04784e-09 0 0 1.8424e-10 0 0 0 0 0 
0 0 0 0 0 0 0 0 0 
2.23788e-11 0 0 0 0 0 0 0 0 
0 0 0 0 3.94525e-09 0 0 0 0 
0 0 0 0 0 0 0 0 0 
0 5.01262e-09 0 0 0 0 0 0 0 
0 0 0 0 0 0 0 0 0 
0 0 0 0 0 0 3.11884e-10 0 0 
0 0 0 0 0 0 0 0 0 
0 0 0 0 0 0 0 0 0 
0 0 0 0 0 0 0 0 0 
0 1.21854e-08 0 0 8.3455e-12 0 0 0 2.3052e-08 
0 0 0 0 0 0 0 0 0 
0 0 0 0 4.04212e-09 0 0 0 0 
0 0 0 0 0 0 0 1.2783e-08 0 
0 0 0 0 0 0 0 0 0 
0 0 0 0 0 0 0 0 0 
0 0 0 0 0 0 0 2.89922e-09 0 
0 0 0 0 0 0 0 0 0 
0 0 0 0 0 0 0 0 0 
0 0 0 0 0 0 0 0 0 
0 0 0 0 0 0 0 0 0 
0 0 0 0 0 0 0 0 0 
6.75598e-09 0 0 0 0 0 0 4.32518e-10 0 
0 0 0 0 0 0 0 0 1.01864e-08 
0 0 0 0 0 0 1.33913e-10 0 1.63013e-08 
0 0 0 0 0 0 0 0 0 
0 0 0 0 0 0 0 0 0 
0 2.83138e-10 0 0 0 0 0 0 5.93531e-09 
2.74543e-10 1.26633e-08 0 0 0 0 0 0 0 
0 0 0 0 0 0 0 0 0 
1.38668e-08 0 0 0 0 0 0 0 0 
0 0 0 0 0 0 0 0 0 
0 0 4.03254e-09 0 0 0 0 0 0 
0 0 0 0 0 0 0 0 1.7759e-08 
2.51945e-10 0 0 0 0 0 0 0 0 
0 0 0 0 0 0 0 0 0 
8.25558e-09 0 0 0 0 0 0 0 0 
0 0 0 0 0 0 0 0 0 
0 0 1.96026e-08 0 0 0 0 0 0 
0 0 0 5.80897e-10 0 0 0 0 0 
0 0 0 0 0 0 0 0 0 
0 1.272e-08 0 0 0 0 0 
feature_3 1 2500 float
0 0 0 0 0 0 0 0 0 
0 0 0 0 0 0 0 0 0 
0 0 0 0 0 0 0 0 0 
0 0 0 0 0 0 0 0 0 
0 0 0 0 0 0 0 0 0 
0 0 0 0 0 0 0 0 0 
0 0 0 0 0 0 0 0 0 
0 0 0 0 0 0 0 0 0 
0 0 0 0 0 0 0 0 0 
0 0 0 0 0 0 0 0 0 
0 0 0 0 0 0 0 0 0 
0 0 0 0 0 0 0 0 0 
0 0 0 0 0 0 0 0 0 
0 0 0 0 0 0 0 0 0 
0 2.8716e-10 0 0 0 0 0 0 0 
0 0 0 0 0 9.96421e-13 0 0 0 
0 0 0 0 0 0 0 0 0 
0 0 0 0 0 0 0 0 0 
0 0 0 0 0 0 0 0 0 
0 0 0 0 0 0 0 0 0 
0 0 0 0 0 0 0 0 0 
0 0 0 2.362e-08 0 0 0 0 0 
0 0 0 0 0 0 0 0 0 
0 0 0 0 0 0 0 0 0 
0 0 0 0 0 0 0 0 0 
0 0 0 0 0 0 0 0 0 
0 0 0 0 0 0 0 0 0 
0 0 0 0 0 0 0 0 0 
0 0 0 0 0 0 0 0 0 
0 0 0 0 0 0 0 0 0 
0 0 0 0 0 0 0 0 0 
0 0 0 0 0 0 0 0 0 
0 0 0 0 0 0 0 0 0 
0 0 0 0 0 0 0 0 0 
0 0 0 0 0 5.00425e-09 0 0 0 
0 0 0 0 0 0 0 0 0 
0 0 0 0 0 0 0 0 0 
0 0 0 0 0 0 0 0 0 
0 0 0 0 0 0 0 0 0 
0 0 0 0 0 0 0 0 0 
0 0 0 0 0 0 0 0 0 
0 0 0 0 0 0 0 0 0 
0 0 0 0 0 0 0 0 0 
0 0 0 1.14763e-10 0 0 0 0 0 
0 0 0 0 0 0 0 0 0 
0 0 0 0 0 0 0 0 0 
0 0 0 0 0 0 0 0 0 
0 0 0 0 0 0 0 0 0 
0 0 0 0 0 0 0 0 0 
0 0 0 0 0 0 0 0 0 
0 0 0 0 0 0 0 0 0 
0 0 0 0 0 0 0 0 0 
0 0 0 0 0 0 0 0 0 
0 0 0 0 0 0 0 0 0 
0 0 0 0 0 0 0 0 0 
0 0 2.96092e-08 0 0 0 0 0 0 
0 0 0 0 0 2.39467e-10 0 0 0 
0 0 0 0 0 0 0 0 0 
0 0 0 0 0 0 0 0 0 
0 0 0 0 0 0 0 0 0 
0 0 0 0 0 0 0 0 0 
0 0 0 0 8.43875e-09 0 0 0 0 
0 0 0 0 0 0 0 0 0 
0 0 0 0 0 0 0 0 0 
0 0 0 0 0 0 0 0 0 
0 0 0 0 0 0 0 0 0 
0 0 0 3.22266e-08 0 0 0 0 0 
0 0 0 0 0 0 0 0 0 
0 0 0 0 0 0 0 0 0 
0 0 0 0 0 0 0 0 0 
0 0 0 0 0 0 0 0 0 
0 0 0 0 0 0 0 0 0 
0 0 0 0 0 0 0 0 0 
0 0 0 0 0 0 0 0 0 
0 0 0 0 0 0 0 0 0 
0 0 0 1.21553e-12 0 0 0 0 0 
0 0 0 0 0 0 0 0 0 
0 0 0 0 0 0 0 0 0 
0 0 0 0 0 0 0 8.98696e-09 0 
0 0 0 0 0 0 0 0 0 
0 0 0 0 1.12398e-08 0 3.64971e-11 0 0 
0 0 0 0 0 0 0 0 0 
0 0 0 0 0 0 0 0 0 
0 0 0 0 0 0 0 0 0 
0 0 0 0 0 0 0 0 0 
0 0 0 0 0 0 0 0 0 
0 0 0 0 0 0 0 0 0 
0 0 0 0 0 0 4.39648e-09 0 0 
0 0 0 0 0 0 0 0 0 
0 0 0 0 0 0 0 0 0 
0 0 0 0 0 0 0 0 0 
0 0 0 0 0 0 0 0 1.09597e-08 
0 0 0 0 0 0 0 0 0 
0 0 0 0 0 0 0 0 0 
0 0 0 0 0 0 0 0 0 
0 0 0 0 0 0 0 0 0 
0 0 0 0 0 0 0 0 0 
0 0 0 0 0 0 0 0 0 
0 0 0 0 8.12125e-08 0 0 0 0 
0 0 0 0 0 0 0 0 0 
0 0 0 0 0 0 0 0 0 
0 0 0 0 0 0 0 0 0 
0 0 0 0 0 0 0 0 0 
0 0 0 0 0 0 0 0 0 
0 0 0 0 0 0 0 0 0 
0 0 0 0 0 0 0 0 0 
0 0 0 0 0 0 0 0 0 
0 0 0 0 0 0 0 0 0 
0 0 0 0 0 0 0 0 0 
0 0 0 0 0 0 0 0 0 
0 0 0 0 0 0 0 0 0 
0 0 2.73822e-08 0 0 0 0 0 0 
0 0 0 0 0 0 0 0 0 
0 0 0 0 0 0 0 0 0 
0 0 0 0 0 0 0 0 0 
0 0 0 0 0 0 0 0 0 
0 0 0 0 0 0 0 0 0 
0 2.82455e-10 0 0 0 0 0 0 0 
0 0 0 0 0 0 0 0 0 
0 0 0 0 0 0 0 0 0 
0 0 0 2.37537e-10 0 0 0 0 0 
0 0 0 0 0 0 0 0 0 
0 0 2.93319e-08 0 0 0 0 0 0 
0 0 0 0 0 0 0 0 0 
0 0 0 0 0 0 0 0 0 
0 0 0 0 0 0 0 0 0 
0 0 0 0 0 0 0 0 0 
0 0 0 0 0 0 0 0 0 
0 0 0 0 0 0 0 0 0 
0 0 0 0 0 0 0 0 0 
0 0 0 0 0 0 0 0 0 
0 0 0 0 0 0 0 0 0 
0 0 0 0 0 0 0 0 0 
0 0 0 0 0 0 0 0 0 
0 0 0 0 0 0 0 0 0 
0 0 0 0 0 0 0 0 0 
0 0 0 0 0 0 0 0 0 
0 0 0 0 0 0 0 0 0 
0 0 0 0 0 0 0 0 0 
0 0 0 0 0 0 0 0 0 
0 0 0 0 0 0 0 0 0 
0 0 0 0 0 0 0 0 0 
0 0 0 5.80207e-09 0 0 0 0 0 
0 0 0 0 0 0 0 0 0 
0 0 0 0 0 2.12402e-08 0 1.56672e-10 2.21767e-08 
0 0 0 0 0 0 0 0 0 
0 0 0 0 0 0 0 0 0 
0 0 0 2.26554e-10 0 0 0 0 0 
0 0 0 0 0 0 0 0 0 
0 0 0 0 0 0 0 8.68119e-09 0 
0 0 0 0 0 0 0 0 0 
0 0 0 0 0 0 0 0 0 
0 0 0 0 0 0 0 0 0 
0 0 0 0 0 0 0 0 0 
0 0 0 0 0 0 0 0 1.7248e-08 
0 0 0 0 0 0 0 0 0 
0 0 0 0 0 0 0 0 0 
0 0 0 9.48977e-09 0 0 0 0 0 
0 0 0 0 6.65172e-09 0 0 0 0 
0 0 0 0 0 0 0 0 0 
0 0 0 0 0 0 0 0 0 
0 0 0 0 0 0 0 0 0 
0 0 0 0 0 0 0 0 0 
0 0 0 0 0 0 0 0 0 
0 0 0 0 0 0 0 0 0 
0 0 0 0 0 0 0 0 0 
0 0 0 0 0 0 0 0 0 
0 0 0 0 0 0 0 0 0 
0 0 0 0 0 0 0 0 0 
0 0 0 0 0 0 0 0 0 
0 0 0 0 0 0 0 0 0 
0 0 0 0 0 0 0 0 2.29284e-08 
0 0 0 0 0 0 0 1.15355e-10 0 
0 0 0 0 0 0 0 0 0 
0 0 0 0 0 0 0 0 0 
0 0 0 0 0 0 0 0 0 
0 0 0 0 0 0 3.9875e-09 0 0 
0 0 0 0 0 0 0 0 0 
0 0 0 0 0 0 0 0 0 
0 0 0 0 0 0 0 0 0 
0 0 0 0 0 0 0 0 0 
0 0 0 0 0 0 0 0 0 
0 0 0 0 0 0 0 0 0 
0 0 0 0 0 0 0 0 0 
0 0 1.2171e-08 0 0 0 0 0 0 
0 0 0 0 0 0 0 0 0 
0 0 0 0 0 0 0 0 0 
0 0 0 0 0 0 0 0 0 
0 0 0 0 0 0 0 0 0 
0 0 0 0 0 0 0 0 0 
0 0 0 0 0 0 0 0 0 
0 0 0 0 0 0 0 0 0 
0 0 0 0 0 0 0 0 1.72057e-12 
0 0 0 0 0 0 0 0 0 
0 0 0 0 0 0 0 0 0 
0 0 0 0 0 0 0 0 0 
0 0 0 0 0 0 0 0 0 
0 0 0 0 0 0 0 0 0 
0 0 0 0 0 0 0 0 0 
0 0 0 0 0 0 0 0 0 
1.2777e-08 0 0 0 0 0 0 0 0 
0 0 0 0 0 0 0 0 0 
0 0 0 0 0 0 0 0 0 
0 0 0 0 0 0 0 0 0 
0 0 0 0 5.43338e-09 0 1.51585e-08 0 0 
0 0 0 0 1.87394e-08 0 0 0 0 
0 0 0 0 0 0 0 0 0 
0 0 0 0 0 0 0 0 0 
0 0 0 1.89485e-10 0 0 0 0 0 
0 0 0 0 0 1.05416e-08 0 0 0 
0 0 0 0 1.81119e-10 0 0 0 0 
0 0 0 0 0 0 0 0 0 
0 0 0 0 0 0 0 0 0 
0 0 0 0 0 0 0 0 0 
0 0 0 0 0 0 0 0 0 
0 0 0 0 0 0 0 0 0 
0 0 0 0 0 0 1.72025e-08 0 0 
0 0 0 0 0 0 0 0 0 
0 0 0 0 0 0 0 0 0 
0 0 0 0 0 0 0 0 0 
0 0 0 0 0 0 0 0 0 
0 0 0 0 0 0 0 0 0 
0 0 2.66241e-09 0 0 0 0 0 0 
0 0 0 0 0 0 0 0 0 
0 0 0 0 0 0 0 0 0 
0 0 0 0 0 0 0 0 0 
0 0 0 0 0 0 0 0 0 
0 0 0 4.59206e-10 0 0 0 0 0 
0 0 0 0 0 0 0 0 0 
0 0 0 0 0 0 0 0 0 
0 0 0 0 0 0 0 0 0 
0 0 0 0 0 0 0 0 0 
0 0 0 0 0 0 0 0 0 
0 0 0 0 0 0 0 0 0 
0 0 0 0 0 0 0 0 0 
1.25198e-10 0 0 0 0 0 0 0 0 
0 0 0 0 0 0 0 0 0 
0 0 4.214e-09 0 0 0 0 0 4.73939e-11 
0 0 0 0 0 0 0 0 0 
0 0 0 0 0 0 0 0 0 
0 0 0 0 0 0 0 0 0 
0 0 0 0 0 0 0 0 0 
0 0 0 0 0 0 7.77299e-11 0 0 
0 0 0 0 0 0 0 0 1.58915e-08 
0 0 0 0 0 0 0 0 0 
0 0 0 0 0 0 0 0 0 
0 0 0 0 0 0 0 1.28837e-08 0 
0 0 0 0 0 0 0 1.41584e-08 0 
0 0 0 0 0 0 0 0 0 
0 0 9.21217e-11 0 0 0 0 0 0 
0 0 0 0 0 0 0 0 0 
0 0 0 0 0 0 0 0 0 
0 0 0 0 0 0 0 0 0 
0 0 0 0 0 0 0 0 0 
0 2.19613e-10 0 0 0 0 0 0 0 
0 0 0 0 0 0 0 0 0 
0 0 0 0 0 0 0 0 0 
0 4.9669e-09 0 0 0 0 0 0 0 
0 0 0 0 0 0 0 0 0 
0 0 0 0 0 0 0 0 0 
0 0 0 0 0 0 0 0 0 
0 0 0 0 0 0 0 0 0 
0 0 0 0 0 0 0 0 0 
0 0 0 0 0 0 0 0 0 
0 0 0 0 0 0 0 0 0 
0 0 0 0 0 0 2.10197e-08 0 0 
0 0 0 0 0 0 0 0 0 
0 0 0 0 0 0 0 0 0 
0 0 0 0 0 0 0 0 0 
0 0 0 0 0 0 0 0 0 
0 0 0 0 0 0 0 0 0 
0 0 0 0 0 0 0 0 0 
0 0 0 0 0 0 0 0 8.34418e-09 
0 0 0 0 0 0 0 0 0 
0 0 0 0 0 0 0 0 0 
0 0 0 0 0 0 0 0 0 
0 0 0 0 0 0 0 0 0 
0 0 0 0 0 0 0 
feature_4 1 2500 float
0 0 0 0 0 0 0 4.543e-10 0 
0 0 0 0 0 0 0 0 0 
0 0 0 0 0 0 0 0 0 
0 0 0 0 0 0 0 0 0 
0 0 0 0 0 2.19784e-11 0 0 0 
0 0 0 0 0 0 3.37169e-12 0 0 
0 0 1.28244e-11 0 0 0 0 0 0 
0 0 0 0 0 0 0 0 0 
0 0 0 0 0 0 0 0 0 
0 0 0 0 0 0 0 0 0 
0 0 0 0 0 0 0 0 0 
0 0 0 0 0 0 0 0 0 
8.55864e-11 0 0 0 0 0 0 0 0 
0 0 0 0 0 0 0 0 0 
0 0 0 0 0 0 0 0 0 
0 6.722e-09 0 0 0 0 0 0 0 
0 0 0 0 0 0 0 0 0 
0 0 0 0 0 0 0 0 0 
0 0 0 0 0 0 0 0 0 
0 0 0 0 0 0 0 0 0 
0 0 0 0 0 0 0 0 0 
0 0 0 0 0 0 0 0 0 
0 0 0 0 0 0 0 0 0 
0 0 0 0 0 0 0 0 0 
0 0 0 0 0 0 0 0 0 
0 0 0 0 0 0 0 0 0 
0 0 0 0 0 0 0 0 0 
0 0 0 0 0 0 0 0 0 
0 0 0 0 0 1.35217e-10 0 0 0 
0 0 0 0 0 0 0 0 0 
0 0 0 0 0 0 0 0 0 
0 0 0 0 0 0 0 0 0 
0 0 0 0 0 0 0 0 0 
0 0 0 0 0 0 0 0 0 
0 0 0 0 0 0 0 0 0 
0 0 0 0 0 0 0 0 0 
0 0 0 0 0 0 0 0 0 
0 0 0 0 0 0 0 0 0 
0 0 0 0 0 0 0 0 0 
0 2.77184e-11 0 0 0 0 0 0 0 
0 0 0 0 0 0 0 0 0 
0 0 0 0 0 0 0 0 0 
0 0 0 0 0 0 0 0 0 
0 0 0 0 0 0 0 0 0 
0 0 0 0 0 0 0 0 0 
0 0 0 0 0 0 0 0 0 
0 0 0 0 0 0 0 0 0 
0 0 0 0 0 0 0 0 0 
0 0 0 0 0 0 0 0 0 
0 0 0 0 0 5.22753e-11 0 0 0 
0 0 0 0 0 0 0 0 0 
0 0 0 0 0 0 0 0 0 
0 0 0 0 0 0 0 0 0 
0 0 0 0 0 0 0 0 0 
0 0 0 0 0 0 0 0 0 
0 0 0 0 0 0 0 0 0 
0 0 0 0 0 0 0 0 0 
0 0 0 0 0 0 0 0 0 
0 0 0 0 0 0 0 0 0 
0 0 0 0 0 0 0 0 0 
0 0 0 0 0 0 0 0 0 
0 0 0 0 0 0 0 0 0 
0 0 0 0 0 0 0 0 0 
0 0 0 0 0 0 0 0 0 
0 0 0 0 0 0 0 0 0 
0 0 0 0 0 0 0 0 0 
0 0 0 6.14498e-09 0 0 0 0 0 
0 0 0 0 0 0 0 0 0 
0 0 0 0 0 0 0 0 0 
0 0 0 0 0 0 0 0 0 
0 0 0 0 0 0 0 0 0 
0 0 0 0 0 0 0 3.1734e-09 0 
0 0 0 0 0 0 0 0 0 
0 1.58171e-09 0 0 0 0 0 0 0 
0 0 0 0 0 0 0 0 0 
0 0 0 0 0 0 0 7.17768e-11 0 
0 0 0 0 0 0 0 0 0 
0 0 0 0 0 0 0 0 0 
0 0 0 0 0 0 0 0 0 
0 0 0 0 0 0 0 0 0 
0 0 0 0 0 0 0 0 0 
0 0 0 0 0 0 0 0 0 
0 0 0 0 0 0 0 0 0 
0 0 0 0 0 0 0 0 0 
0 0 0 0 0 0 0 0 0 
0 0 0 0 0 0 0 0 0 
0 0 0 0 0 0 0 0 0 
0 0 0 0 0 0 0 0 0 
0 0 0 0 0 0 0 0 0 
0 0 0 0 0 0 0 0 0 
0 0 0 0 0 0 0 0 0 
0 0 0 0 0 0 0 0 0 
0 0 0 0 0 0 0 0 0 
0 0 0 0 0 0 0 0 0 
0 0 0 0 0 0 0 0 0 
0 0 0 0 0 0 0 0 0 
0 0 0 0 0 0 0 0 0 
0 0 0 0 0 0 0 0 0 
0 0 0 0 1.52448e-08 0 0 0 0 
0 0 0 0 0 0 0 0 0 
0 0 0 0 0 0 0 0 0 
0 0 0 0 0 0 0 0 0 
0 0 0 0 0 0 0 0 0 
0 0 0 0 0 0 0 0 0 
0 0 0 0 0 0 0 0 0 
0 0 0 0 0 0 0 0 0 
0 0 0 0 0 0 0 0 0 
0 0 0 0 0 0 0 0 0 
0 0 0 0 0 0 0 0 0 
0 0 0 0 0 0 0 0 0 
0 0 0 0 0 0 0 0 0 
0 0 6.2804e-09 0 0 0 0 0 7.57477e-11 
0 0 0 0 0 0 0 0 0 
0 0 0 0 0 0 0 0 0 
0 0 0 0 0 0 0 0 0 
0 0 0 0 0 0 0 0 0 
0 0 0 0 0 0 0 0 0 
0 0 0 2.26442e-09 0 0 0 0 0 
0 0 0 0 0 0 0 0 0 
0 0 0 0 0 0 0 0 0 
0 8.56505e-11 0 0 0 0 0 0 0 
0 0 0 0 0 0 0 0 0 
0 0 0 0 0 0 0 0 0 
0 0 0 0 0 0 0 0 0 
0 0 0 0 0 0 0 0 0 
0 0 4.86711e-10 0 0 0 0 0 0 
0 0 0 0 0 0 0 0 0 
0 0 0 0 0 0 0 0 0 
0 0 0 0 0 0 0 0 0 
0 0 0 0 0 0 0 0 0 
0 0 0 0 0 0 0 0 0 
0 0 0 0 0 0 0 0 0 
0 0 0 0 0 0 0 0 0 
0 0 0 0 0 0 0 0 0 
0 0 0 0 0 0 0 0 0 
0 0 0 0 0 0 0 0 0 
0 0 0 0 0 0 0 0 0 
0 0 0 0 0 0 0 0 0 
0 0 0 0 0 0 1.6925e-10 0 0 
0 0 0 0 0 0 0 0 0 
0 0 0 0 0 0 0 0 0 
0 0 0 0 0 0 0 0 0 
0 0 0 0 0 0 0 0 0 
0 0 0 0 0 0 8.81902e-11 0 0 
0 0 0 0 0 0 0 0 4.64689e-09 
0 0 0 0 0 0 0 0 0 
0 0 0 0 0 0 0 0 0 
0 0 0 1.52816e-10 0 0 0 0 0 
0 0 0 0 0 0 0 0 0 
0 0 0 0 0 0 0 0 0 
0 0 0 0 0 0 0 0 0 
0 0 0 0 0 0 0 0 0 
0 0 0 0 4.36974e-11 0 0 0 0 
0 0 3.02291e-10 0 0 0 0 0 0 
0 0 0 0 0 0 0 0 2.99958e-09 
0 0 0 0 0 0 0 0 0 
0 0 0 0 0 0 0 0 0 
0 0 0 0 0 0 0 0 0 
0 0 1.82318e-10 0 0 0 0 0 0 
0 0 0 0 0 0 0 0 0 
0 0 0 0 0 0 0 0 0 
0 0 0 0 0 0 0 0 0 
0 0 0 0 0 0 0 0 0 
0 0 0 0 0 0 0 0 0 
0 0 0 0 0 0 0 0 0 
0 0 0 0 0 0 0 0 0 
0 0 0 0 0 0 0 0 0 
0 0 0 0 0 0 0 0 0 
0 0 0 0 1.10179e-10 0 0 0 0 
0 0 0 0 0 0 0 0 0 
0 0 0 0 0 0 0 0 0 
0 0 0 0 0 0 0 0 0 
0 0 0 0 0 0 0 0 0 
0 0 0 0 0 0 1.60557e-09 0 0 
0 0 0 0 0 0 0 0 0 
0 0 0 0 0 0 0 0 0 
0 0 0 0 0 0 0 0 0 
0 0 0 0 0 0 0 0 0 
0 0 0 0 0 0 0 0 0 
0 0 0 0 0 0 0 0 0 
0 0 0 0 1.24464e-10 0 0 0 0 
0 0 0 0 0 0 0 0 0 
0 0 0 0 0 0 0 0 0 
0 0 0 0 0 0 0 0 0 
0 0 3.19066e-09 0 0 0 0 0 0 
0 0 0 0 0 0 0 0 0 
0 2.27383e-11 0 0 0 0 0 0 0 
0 0 0 0 0 0 0 0 0 
8.00829e-10 0 0 0 0 0 0 0 0 
0 0 0 0 0 0 0 0 0 
0 0 0 0 0 0 0 0 0 
0 0 0 0 0 0 0 0 0 
0 0 0 0 0 0 0 0 0 
0 0 0 0 0 0 0 0 0 
0 0 0 0 0 0 0 0 0 
0 0 0 0 0 0 0 0 0 
0 0 0 0 0 0 0 0 0 
0 0 0 0 0 0 0 0 0 
6.77725e-09 0 0 0 0 0 0 0 0 
0 0 0 0 0 0 0 0 0 
0 0 0 0 0 0 0 0 0 
0 0 0 0 0 0 0 0 0 
0 0 0 0 0 0 0 0 0 
0 0 0 0 0 0 0 0 0 
0 0 0 0 0 0 0 0 0 
0 0 0 0 0 0 0 0 0 
0 0 0 0 0 0 0 0 0 
0 0 0 0 0 0 0 0 0 
0 0 0 0 0 0 0 0 0 
0 0 0 0 0 0 0 0 0 
0 0 0 0 0 0 0 0 0 
0 0 0 0 0 0 0 0 0 
0 0 0 0 0 0 0 0 0 
0 0 0 0 0 0 0 0 0 
0 0 0 0 0 0 0 0 0 
0 0 0 0 0 1.08332e-10 0 0 0 
0 0 0 0 0 0 3.59991e-09 0 0 
0 0 0 0 0 0 0 0 0 
0 0 0 0 0 0 0 0 0 
0 0 0 0 0 0 0 0 0 
0 0 0 0 0 0 0 0 0 
0 0 0 0 0 0 0 0 0 
0 0 0 0 0 0 0 0 0 
0 0 0 0 0 0 0 0 0 
0 7.06894e-11 0 0 0 0 0 0 0 
0 0 0 0 0 0 0 0 0 
0 0 0 0 0 0 0 0 0 
0 0 1.68124e-11 0 0 0 0 0 0 
0 0 0 0 0 0 0 0 0 
0 0 0 0 0 0 0 0 0 
0 0 0 0 0 0 0 0 0 
0 0 0 0 0 0 0 0 0 
0 0 0 0 0 0 0 0 0 
0 0 0 0 0 0 0 0 0 
0 0 0 0 0 0 0 0 0 
0 0 0 0 0 0 0 0 0 
0 0 0 0 0 0 0 0 0 
0 0 0 0 0 0 0 0 0 
0 0 0 0 0 0 0 0 0 
0 0 0 0 0 0 0 0 0 
0 0 0 0 0 0 0 0 0 
0 0 0 0 0 0 0 0 0 
0 0 0 0 0 0 0 0 0 
0 0 0 0 0 0 0 0 3.55717e-09 
0 0 0 0 0 0 0 0 4.1738e-10 
0 0 0 0 0 0 0 0 0 
0 0 0 0 0 0 0 0 0 
0 0 0 0 0 0 0 0 0 
0 0 0 0 0 0 0 0 0 
0 0 0 0 0 0 0 0 0 
3.06295e-09 0 0 0 0 0 0 0 0 
0 0 0 0 0 0 0 0 0 
0 0 0 0 0 0 0 0 0 
0 0 0 0 0 0 0 0 0 
0 0 0 0 0 0 0 1.75506e-11 0 
0 0 0 0 0 0 0 0 0 
0 0 0 0 0 0 0 0 0 
0 0 0 0 0 0 0 0 0 
0 0 0 0 0 0 0 0 0 
0 0 0 0 0 0 0 0 0 
0 0 0 0 0 0 0 0 0 
0 0 0 0 0 0 0 0 0 
0 0 0 0 0 0 0 0 0 
0 0 0 0 0 0 0 0 0 
0 0 0 0 0 2.17862e-11 0 0 0 
0 0 0 0 0 0 4.89504e-09 0 0 
0 0 0 0 0 0 0 0 0 
0 0 0 0 0 0 0 0 0 
0 0 0 0 0 0 0 0 0 
0 0 0 0 0 0 0 0 0 
0 0 0 0 0 0 0 0 0 
0 0 0 0 0 0 0 0 0 
0 0 0 0 0 0 0 0 2.71836e-09 
0 0 0 0 0 0 0 0 0 
0 0 1.39736e-09 0 0 0 0 0 0 
0 4.46742e-09 0 0 0 0 0 0 0 
0 0 0 0 0 0 0 0 0 
0 0 0 0 0 0 0 
feature_5 1 2500 float
0 0 0 0 0 0 0 0 0 
0 0 0 0 0 0 0 0 0 
0 0 0 0 0 0 0 0 0 
0 0 0 0 0 0 0 9.3498e-09 0 
0 0 0 0 0 0 0 0 0 
0 0 0 0 0 0 0 0 0 
0 0 0 0 0 0 0 0 0 
0 0 4.81559e-09 0 0 0 0 0 0 
0 0 0 0 0 0 0 0 0 
0 1.42735e-08 0 0 0 0 0 0 0 
0 0 0 0 0 0 6.52466e-09 0 0 
0 0 0 0 0 0 0 0 0 
0 0 0 0 0 0 0 0 0 
0 0 0 0 9.7985e-09 0 0 0 0 
0 0 0 0 0 0 1.17002e-08 0 0 
0 1.10786e-08 0 0 0 0 0 2.00792e-08 0 
0 0 0 1.15079e-08 0 0 0 0 0 
0 0 0 0 0 0 0 0 0 
0 0 0 0 0 0 0 0 0 
0 0 0 0 0 0 0 0 0 
0 0 0 0 0 0 0 0 0 
0 0 0 2.98815e-08 0 0 0 0 3.45757e-08 
0 0 0 0 0 0 0 0 0 
0 0 0 9.18981e-09 0 0 0 0 0 
0 0 0 0 0 0 0 0 0 
0 0 0 0 0 0 1.31296e-08 0 0 
0 0 0 0 0 0 0 0 0 
0 0 0 0 0 0 0 0 0 
0 0 0 0 2.19867e-08 0 0 0 0 
0 0 0 0 0 0 0 0 0 
0 0 0 0 0 3.22286e-10 0 0 0 
0 0 0 0 0 0 0 0 0 
0 0 0 0 3.03236e-11 0 0 0 0 
0 0 0 0 0 0 0 0 0 
0 0 0 0 0 0 0 0 0 
0 0 0 0 0 0 0 2.46921e-09 0 
0 0 0 0 0 0 0 0 0 
0 0 1.87046e-08 0 0 0 6.94379e-09 0 0 
0 0 0 0 0 0 0 0 0 
5.01889e-09 0 1.36338e-08 0 0 0 0 0 0 
0 0 0 0 0 0 0 0 0 
0 0 0 0 0 0 0 0 0 
0 0 0 0 0 0 0 0 0 
0 0 0 0 0 0 0 0 0 
0 0 0 0 0 0 2.00969e-08 0 0 
1.15315e-08 0 0 1.15254e-07 0 0 0 0 7.26952e-09 
0 0 0 1.09988e-08 0 0 0 0 0 
0 0 0 0 0 0 0 0 0 
0 0 0 0 0 0 0 0 0 
0 0 0 0 0 0 0 0 0 
0 0 0 0 0 0 0 0 0 
0 0 0 0 0 0 0 0 0 
0 0 0 0 0 2.20035e-11 0 0 0 
0 0 2.59725e-08 0 0 0 0 0 0 
0 0 0 0 0 0 0 0 0 
0 0 0 0 0 0 0 0 1.7506e-08 
1.89983e-08 0 0 0 0 0 0 0 0 
0 0 0 0 0 0 0 0 0 
0 0 0 0 0 0 0 0 0 
0 0 0 0 0 0 0 0 0 
0 0 0 0 0 0 0 7.33848e-09 0 
0 0 0 0 0 0 0 0 0 
0 0 0 0 0 0 0 0 0 
0 0 9.09559e-09 0 0 0 0 0 0 
0 0 0 0 0 0 0 0 0 
0 0 0 0 0 0 0 0 0 
0 1.20098e-10 0 0 0 0 0 0 0 
0 0 0 0 0 0 0 0 0 
0 0 0 0 0 0 0 0 0 
0 0 0 0 0 0 0 0 0 
0 0 0 0 0 0 0 0 0 
0 0 0 0 0 0 0 0 0 
0 0 0 0 0 0 0 0 0 
0 0 1.65063e-10 0 0 0 0 0 0 
0 2.8009e-08 0 0 0 0 0 0 0 
0 0 0 0 0 0 0 0 0 
0 0 0 0 0 0 0 4.51725e-09 0 
0 0 3.10786e-11 0 0 0 0 0 0 
2.14528e-08 0 0 0 0 0 0 0 0 
0 0 0 0 0 0 0 5.1448e-09 0 
0 0 0 0 0 0 0 0 0 
0 0 0 0 0 0 0 0 0 
0 0 1.40249e-08 0 0 0 2.85944e-08 0 0 
0 0 0 0 0 0 0 0 0 
0 0 0 0 0 0 0 7.39482e-07 3.81674e-07 
0 0 0 0 0 0 0 0 0 
0 0 0 0 0 0 0 0 0 
0 0 0 0 6.90821e-09 0 0 0 0 
0 0 0 0 0 0 0 0 0 
0 0 0 0 0 0 0 0 0 
0 0 0 0 0 0 0 0 0 
0 0 0 0 0 0 0 0 0 
0 0 0 0 0 0 0 0 0 
0 0 0 0 2.11883e-08 0 0 0 0 
0 2.93792e-08 0 0 1.47595e-08 0 0 0 0 
0 0 0 0 0 0 0 0 0 
0 0 0 0 0 0 0 0 0 
0 0 0 0 0 0 0 0 0 
0 0 0 0 2.39176e-08 0 0 0 0 
0 0 8.12057e-09 0 0 0 5.23653e-09 0 0 
0 0 0 0 0 0 0 0 0 
0 0 0 0 0 0 0 0 0 
0 0 0 0 0 0 0 0 0 
0 0 0 0 0 0 2.90187e-10 0 0 
0 0 0 0 0 0 0 3.2975e-08 0 
0 0 0 0 0 0 0 0 0 
9.23003e-09 0 0 0 0 0 0 0 0 
0 0 0 0 0 0 0 0 0 
0 0 0 0 0 0 0 0 0 
0 0 0 0 0 0 0 0 0 
0 6.31056e-11 0 0 0 0 0 0 0 
0 0 9.52812e-09 0 0 0 0 0 0 
0 0 0 0 0 0 0 0 0 
0 0 0 0 0 0 0 0 0 
0 0 0 0 0 0 0 0 0 
0 0 0 3.91181e-10 0 0 0 0 0 
0 2.69995e-08 0 0 0 0 0 0 0 
0 0 0 2.28985e-10 0 0 0 0 0 
0 0 0 0 0 0 0 0 0 
0 0 0 0 0 0 0 0 0 
0 0 0 0 0 0 0 0 0 
0 0 0 0 0 0 0 0 0 
0 2.0352e-08 9.71254e-09 0 0 0 0 0 0 
0 0 0 0 0 0 0 0 0 
0 0 0 0 0 0 0 0 0 
0 0 1.41257e-08 0 0 0 0 0 0 
0 0 0 0 0 0 0 0 0 
0 0 0 0 0 0 0 0 0 
0 0 0 0 0 0 0 0 0 