# vtk DataFile Version 5.1
vtk output
ASCII
DATASET STRUCTURED_POINTS
DIMENSIONS 250 250 1
SPACING 1 1 1
ORIGIN 0 0 0
POINT_DATA 62500
FIELD FieldData 6
feature_1 1 62500 float
0 0 0 0 0 0 0 0 0 
0 0 0 0 0 0 0 0 0 
0 0 0 0 0 0 0 0 0 
0 0 0 0 0 0 0 0 0 
0 0 0 0 0 0 0 0 0 
0 0 0 0 0 0 0 0 0 
0 0 0 0 0 0 0 0 0 
0 0 0 0 0 0 0 0 0 
0 0 0 0 0 0 0 0 0 
0 0 0 0 0 0 0 0 0 
0 0 0 0 0 0 0 0 0 
0 0 0 0 0 0 0 0 0 
0 0 0 0 0 0 0 0 0 
0 0 0 0 0 0 0 0 0 
0 0 0 0 0 0 0 0 0 
0 0 0 0 0 0 0 0 0 
0 0 0 0 0 0 0 0 0 
0 0 0 0 0 0 0 0 0 
0 0 0 0 0 0 0 0 0 
0 0 0 0 0 0 0 0 0 
0 0 0 0 0 0 0 0 0 
0 0 0 0 0 0 0 0 0 
0 0 0 0 0 0 0 0 0 
0 0 0 0 0 0 0 0 0 
0 0 0 0 0 0 0 0 0 
0 0 0 0 0 0 0 0 0 
0 0 0 0 0 0 0 0 0 
0 0 0 0 0 0 0 0 0 
0 0 0 0 0 0 0 0 0 
0 0 0 0 0 0 0 0 0 
0 0 0 0 0 0 0 0 0 
0 0 0 0 0 0 0 0 0 
0 0 0 0 0 0 0 0 0 
0 0 0 0 0 0 0 0 0 
0 0 0 0 0 0 0 0 0 
0 0 0 0 0 0 0 0 0 
0 0 0 0 0 0 0 0 0 
0 0 0 0 0 0 0 0 0 
0 0 0 0 0 0 0 0 0 
0 0 0 0 0 0 0 0 0 
0 0 0 0 0 0 0 0 0 
0 0 0 0 0 0 0 0 0 
0 0 0 0 0 0 0 0 0 
0 0 0 0 0 0 0 0 0 
0 0 0 0 0 0 0 0 0 
0 0 0 0 0 0 0 0 0 
0 0 0 0 0 0 0 0 0 
0 0 0 0 0 0 0 0 0 
0 0 0 0 0 0 0 0 0 
0 0 0 0 0 0 0 0 0 
0 0 0 0 0 0 0 0 0 
0 0 0 0 0 0 0 0 0 
0 0 0 0 0 0 0 0 0 
0 0 0 0 0 0 0 0 0 
0 0 0 0 0 0 0 0 0 
0 0 0 0 0 0 0 0 0 
0 0 0 0 0 0 0 0 0 
0 0 0 0 0 0 0 0 0 
0 0 0 0 0 0 0 0 0 
0 0 0 0 0 0 0 0 0 
0 0 0 0 0 0 0 0 0 
0 0 0 0 0 0 0 0 0 
0 0 0 0 0 0 0 0 0 
0 0 0 0 0 0 0 0 0 
0 0 0 0 0 0 0 0 0 
0 0 0 0 0 0 0 0 0 
0 0 0 0 0 0 0 0 0 
0 0 0 0 0 0 0 0 0 
0 0 0 0 0 0 0 0 0 
0 0 0 0 0 0 0 0 0 
0 0 0 0 0 0 0 0 0 
0 0 0 0 0 0 0 0 0 
0 0 0 0 0 0 0 0 0 
0 0 0 0 0 0 0 0 0 
0 0 0 0 0 0 0 0 0 
0 0 0 0 0 0 0 0 0 
0 0 0 0 0 0 0 0 0 
0 0 0 0 0 0 0 0 0 
0 0 0 0 0 0 0 0 0 
0 0 0 0 0 0 0 0 0 
0 0 0 0 0 0 0 0 0 
0 0 0 0 0 0 0 0 0 
0 0 0 0 0 0 0 0 0 
0 0 0 0 0 0 0 0 0 
0 0 0 0 0 0 0 0 0 
0 0 0 0 0 0 0 0 0 
0 0 0 0 0 0 0 0 0 
0 0 0 0 0 0 0 0 0 
0 0 0 0 0 0 0 0 0 
0 0 0 0 0 0 0 0 0 
0 0 0 0 0 0 0 0 0 
0 0 0 0 0 0 0 0 0 
0 0 0 0 0 0 0 0 0 
0 0 0 0 0 0 0 0 0 
0 0 0 0 0 0 0 0 0 
0 0 0 0 0 0 0 0 0 
0 0 0 0 0 0 0 0 0 
0 0 0 0 0 0 0 0 0 
0 0 0 0 0 0 0 0 0 
0 0 0 0 0 0 0 0 0 
0 0 0 0 0 0 0 0 0 
0 0 0 0 0 0 0 0 0 
0 0 0 0 0 0 0 0 0 
0 0 0 0 0 0 0 0 0 
0 0 0 0 0 0 0 0 0 
0 0 0 0 0 0 0 0 0 
0 0 0 0 0 0 0 0 0 
0 0 0 0 0 0 0 0 0 
0 0 0 0 0 0 0 0 0 
0 0 0 0 0 0 0 0 0 
0 0 0 0 0 0 0 0 0 
0 0 0 0 0 0 0 0 0 
0 0 0 0 0 0 0 0 0 
0 0 0 0 0 0 0 0 0 
0 0 0 0 0 0 0 0 0 
0 0 0 0 0 0 0 0 0 
0 0 0 0 0 0 0 0 0 
0 0 0 0 0 0 0 0 0 
0 0 0 0 0 0 0 0 0 
0 0 0 0 0 0 0 0 0 
0 0 0 0 0 0 0 0 0 
0 0 0 0 0 0 0 0 0 
0 0 0 0 0 0 0 0 0 
0 0 0 0 0 0 0 0 0 
0 0 0 0 0 0 0 0 0 
0 0 0 0 0 0 0 0 0 
0 0 0 0 0 0 0 0 0 
0 0 0 0 0 0 0 0 0 
0 0 0 0 0 0 0 0 0 
0 0 0 0 0 0 0 0 0 
0 0 0 0 0 0 0 0 0 
0 0 0 0 0 0 0 0 0 
0 0 0 0 0 0 0 0 0 
0 0 0 0 0 0 0 0 0 
0 0 0 0 0 0 0 0 0 
0 0 0 0 0 0 0 0 0 
0 0 0 0 0 0 0 0 0 
0 0 0 0 0 0 0 0 0 
0 0 0 0 0 0 0 0 0 
0 0 0 0 0 0 0 0 0 
0 0 0 0 0 0 0 0 0 
0 0 0 0 0 0 0 0 0 
0 0 0 0 0 0 0 0 0 
0 0 0 0 0 0 0 0 0 
0 0 0 0 0 0 0 0 0 
0 0 0 0 0 0 0 0 0 
0 0 0 0 0 0 0 0 0 
0 0 0 0 0 0 0 0 0 
0 0 0 0 0 0 0 0 0 
0 0 0 0 0 0 0 0 0 
0 0 0 0 0 0 0 0 0 
0 0 0 0 0 0 0 0 0 
0 0 0 0 0 0 0 0 0 
0 0 0 0 0 0 0 0 0 
0 0 0 0 0 0 0 0 0 
0 0 0 0 0 0 0 0 0 
0 0 0 0 0 0 0 0 0 
0 0 0 0 0 0 0 0 0 
0 0 0 0 0 0 0 0 0 
0 0 0 0 0 0 0 0 0 
0 0 0 0 0 0 0 0 0 
0 0 0 0 0 0 0 0 0 
0 0 0 0 0 0 0 0 0 
0 0 0 0 0 0 0 0 0 
0 0 0 0 0 0 0 0 0 
0 0 0 0 0 0 0 0 0 
0 0 0 0 0 0 0 0 0 
0 0 0 0 0 0 0 0 0 
0 0 0 0 0 0 0 0 0 
0 0 0 0 0 0 0 0 0 
0 0 0 0 0 0 0 0 0 
0 0 0 0 0 0 0 0 0 
0 0 0 0 0 0 0 0 0 
0 0 0 0 0 0 0 0 0 
0 0 0 0 0 0 0 0 0 
0 0 0 0 0 0 0 0 0 
0 0 0 0 0 0 0 0 0 
0 0 0 0 0 0 0 0 0 
0 0 0 0 0 0 0 0 0 
0 0 0 0 0 0 0 0 0 
0 0 0 0 0 0 0 0 0 
0 0 0 0 0 0 0 0 0 
0 0 0 0 0 0 0 0 0 
0 0 0 0 0 0 0 0 0 
0 0 0 0 0 0 0 0 0 
0 0 0 0 0 0 0 0 0 
0 0 0 0 0 0 0 0 0 
0 0 0 0 0 0 0 0 0 
0 0 0 0 0 0 0 0 0 
0 0 0 0 0 0 0 0 0 
0 0 0 0 0 0 0 0 0 
0 0 0 0 0 0 0 0 0 
0 0 0 0 0 0 0 0 0 
0 0 0 0 0 0 0 0 0 
0 0 0 0 0 0 0 0 0 
0 0 0 0 0 0 0 0 0 
0 0 0 0 0 0 0 0 0 
0 0 0 0 0 0 0 0 0 
0 0 0 0 0 0 0 0 0 
0 0 0 0 0 0 0 0 0 
0 0 0 0 0 0 0 0 0 
0 0 0 0 0 0 0 0 0 
0 0 0 0 0 0 0 0 0 
0 0 0 0 0 0 0 0 0 
0 0 0 0 0 0 0 0 0 
0 0 0 0 0 0 0 0 0 
0 0 0 0 0 0 0 0 0 
0 0 0 0 0 0 0 0 0 
0 0 0 0 0 0 0 0 0 
0 0 0 0 0 0 0 0 0 
0 0 0 0 0 0 0 0 0 
0 0 0 0 0 0 0 0 0 
0 0 0 0 0 0 0 0 0 
0 0 0 0 0 0 0 0 0 
0 0 0 0 0 0 0 0 0 
0 0 0 0 0 0 0 0 0 
0 0 0 0 0 0 0 0 0 
0 0 0 0 0 0 0 0 0 
0 0 0 0 0 0 0 0 0 
0 0 0 0 0 0 0 0 0 
0 0 0 0 0 0 0 0 0 
0 0 0 0 0 0 0 0 0 
0 0 0 0 0 0 0 0 0 
0 0 0 0 0 0 0 0 0 
0 0 0 0 0 0 0 0 0 
0 0 0 0 0 0 0 0 0 
0 0 0 0 0 0 0 0 0 
0 0 0 0 0 0 0 0 0 
0 0 0 0 0 0 0 0 0 
0 0 0 0 0 0 0 0 0 
0 0 0 0 0 0 0 0 0 
0 0 0 0 0 0 0 0 0 
0 0 0 0 0 0 0 0 0 
0 0 0 0 0 0 0 0 0 
0 0 0 0 0 0 0 0 0 
0 0 0 0 0 0 0 0 0 
0 0 0 0 0 0 0 0 0 
0 0 0 0 0 0 0 0 0 
0 0 0 0 0 0 0 0 0 
0 0 0 0 0 0 0 0 0 
0 0 0 0 0 0 0 0 0 
0 0 0 0 0 0 0 0 0 
0 0 0 0 0 0 0 0 0 
0 0 0 0 0 0 0 0 0 
0 0 0 0 0 0 0 0 0 
0 0 0 0 0 0 0 0 0 
0 0 0 0 0 0 0 0 0 
0 0 0 0 0 0 0 0 0 
0 0 0 0 0 0 0 0 0 
0 0 0 0 0 0 0 0 0 
0 0 0 0 0 0 0 0 0 
0 0 0 0 0 0 0 0 0 
0 0 0 0 0 0 0 0 0 
0 0 0 0 0 0 0 0 0 
0 0 0 0 0 0 0 0 0 
0 0 0 0 0 0 0 0 0 
0 0 0 0 0 0 0 0 0 
0 0 0 0 0 0 0 0 0 
0 0 0 0 0 0 0 0 0 
0 0 0 0 0 0 0 0 0 
0 0 0 0 0 0 0 0 0 
0 0 0 0 0 0 0 0 0 
0 0 0 0 0 0 0 0 0 
0 0 0 0 0 0 0 0 0 
0 0 0 0 0 0 0 0 0 
0 0 0 0 0 0 0 0 0 
0 0 0 0 0 0 0 0 0 
0 0 0 0 0 0 0 0 0 
0 0 0 0 0 0 0 0 0 
0 0 0 0 0 0 0 0 0 
0 0 0 0 0 0 0 0 0 
0 0 0 0 0 0 0 0 0 
0 0 0 0 0 0 0 0 0 
0 0 0 0 0 0 0 0 0 
0 0 0 0 0 0 0 0 0 
0 0 0 0 0 0 0 0 0 
0 0 0 0 0 0 0 0 0 
0 0 0 0 0 0 0 0 0 
0 0 0 0 0 0 0 0 0 
0 0 0 0 0 0 0 0 0 
0 0 0 0 0 0 0 0 0 
0 0 0 0 0 0 0 0 0 
0 0 0 0 0 0 0 0 0 
0 0 0 0 0 0 0 0 0 
0 0 0 0 0 0 0 0 0 
0 0 0 0 0 0 0 0 0 
0 0 0 0 0 0 0 0 0 
0 0 0 0 0 0 0 0 0 
0 0 0 0 0 0 0 0 0 
0 0 0 0 0 0 0 0 0 
0 0 0 0 0 0 0 0 0 
0 0 0 0 0 0 0 0 0 
0 0 0 0 0 0 0 0 0 
0 0 0 0 0 0 0 0 0 
0 0 0 0 0 0 0 0 0 
0 0 0 0 0 0 0 0 0 
0 0 0 0 0 0 0 0 0 
0 0 0 0 0 0 0 0 0 
0 0 0 0 0 0 0 0 0 
0 0 0 0 0 0 0 0 0 
0 0 0 0 0 0 0 0 0 
0 0 0 0 0 0 0 0 0 
0 0 0 0 0 0 0 0 0 
0 0 0 0 0 0 0 0 0 
0 0 0 0 0 0 0 0 0 
0 0 0 0 0 0 0 0 0 
0 0 0 0 0 0 0 0 0 
0 0 0 0 0 0 0 0 0 
0 0 0 0 0 0 0 0 0 
0 0 0 0 0 0 0 0 0 
0 0 0 0 0 0 0 0 0 
0 0 0 0 0 0 0 0 0 
0 0 0 0 0 0 0 0 0 
0 0 0 0 0 0 0 0 0 
0 0 0 0 0 0 0 0 0 
0 0 0 0 0 0 0 0 0 
0 0 0 0 0 0 0 0 0 
0 0 0 0 0 0 0 0 0 
0 0 0 0 0 0 0 0 0 
0 0 0 0 0 0 0 0 0 
0 0 0 0 0 0 0 0 0 
0 0 0 0 0 0 0 0 0 
0 0 0 0 0 0 0 0 0 
0 0 0 0 0 0 0 0 0 
0 0 0 0 0 0 0 0 0 
0 0 0 0 0 0 0 0 0 
0 0 0 0 0 0 0 0 0 
0 0 0 0 0 0 0 0 0 
0 0 0 0 0 0 0 0 0 
0 0 0 0 0 0 0 0 0 
0 0 0 0 0 0 0 0 0 
0 0 0 0 0 0 0 0 0 
0 0 0 0 0 0 0 0 0 
0 0 0 0 0 0 0 0 0 
0 0 0 0 0 0 0 0 0 
0 0 0 0 0 0 0 0 0 
0 0 0 0 0 0 0 0 0 
0 0 0 0 0 0 0 0 0 
0 0 0 0 0 0 0 0 0 
0 0 0 0 0 0 0 0 0 
0 0 0 0 0 0 0 0 0 
0 0 0 0 0 0 0 0 0 
0 0 0 0 0 0 0 0 0 
0 0 0 0 0 0 0 0 0 
0 0 0 0 0 0 0 0 0 
0 0 0 0 0 0 0 0 0 
0 0 0 0 0 0 0 0 0 
0 0 0 0 0 0 0 0 0 
0 0 0 0 0 0 0 0 0 
0 0 0 0 0 0 0 0 0 
0 0 0 0 0 0 0 0 0 
0 0 0 0 0 0 0 0 0 
0 0 0 0 0 0 0 0 0 
0 0 0 0 0 0 0 0 0 
0 0 0 0 0 0 0 0 0 
0 0 0 0 0 0 0 0 0 
0 0 0 0 0 0 0 0 0 
0 0 0 0 0 0 0 0 0 
0 0 0 0 0 0 0 0 0 
0 0 0 0 0 0 0 0 0 
0 0 0 0 0 0 0 0 0 
0 0 0 0 0 0 0 0 0 
0 0 0 0 0 0 0 0 0 
0 0 0 0 0 0 0 0 0 
0 0 0 0 0 0 0 0 0 
0 0 0 0 0 0 0 0 0 
0 0 0 0 0 0 0 0 0 
0 0 0 0 0 0 0 0 0 
0 0 0 0 0 0 0 0 0 
0 0 0 0 0 0 0 0 0 
0 0 0 0 0 0 0 0 0 
0 0 0 0 0 0 0 0 0 
0 0 0 0 0 0 0 0 0 
0 0 0 0 0 0 0 0 0 
0 0 0 0 0 0 0 0 0 
0 0 0 0 0 0 0 0 0 
0 0 0 0 0 0 0 0 0 
0 0 0 0 0 0 0 0 0 
0 0 0 0 0 0 0 0 0 
0 0 0 0 0 0 0 0 0 
0 0 0 0 0 0 0 0 0 
0 0 0 0 0 0 0 0 0 
0 0 0 0 0 0 0 0 0 
0 0 0 0 0 0 0 0 0 
0 0 0 0 0 0 0 0 0 
0 0 0 0 0 0 0 0 0 
0 0 0 0 0 0 0 0 0 
0 0 0 0 0 0 0 0 0 
0 0 0 0 0 0 0 0 0 
0 0 0 0 0 0 0 0 0 
0 0 0 0 0 0 0 0 0 
0 0 0 0 0 0 0 0 0 
0 0 0 0 0 0 0 0 0 
0 0 0 0 0 0 0 0 0 
0 0 0 0 0 0 0 0 0 
0 0 0 0 0 0 0 0 0 
0 0 0 0 0 0 0 0 0 
0 0 0 0 0 0 0 0 0 
0 0 0 0 0 0 0 0 0 
0 0 0 0 0 0 0 0 0 
0 0 0 0 0 0 0 0 0 
0 0 0 0 0 0 0 0 0 
0 0 0 0 0 0 0 0 0 
0 0 0 0 0 0 0 0 0 
0 0 0 0 0 0 1.29611e-12 0 0 
0 0 0 0 0 0 0 0 0 
0 0 0 0 0 0 0 0 0 
0 0 0 0 0 0 0 0 0 
0 0 0 0 0 0 0 0 0 
0 0 0 0 0 0 0 0 0 
0 0 0 0 0 0 0 0 0 
0 0 0 0 0 0 0 0 0 
0 0 0 0 0 0 0 0 0 
0 0 0 0 0 0 0 0 0 
0 0 0 0 0 0 0 0 0 
0 0 0 0 0 0 0 0 0 
0 0 0 0 0 0 0 0 0 
0 0 0 0 0 0 0 0 0 
0 0 0 0 0 0 0 0 0 
0 0 0 0 0 0 0 0 0 
0 0 0 0 0 0 0 0 0 
0 0 0 0 0 0 0 0 0 
0 0 0 0 0 0 0 0 0 
0 0 0 0 0 0 0 0 0 
0 0 0 0 0 0 0 0 0 
0 0 0 0 0 0 0 0 0 
0 0 0 0 0 0 0 0 0 
0 0 0 0 0 0 0 0 0 
0 0 0 0 0 0 0 0 0 
0 0 0 0 0 0 0 0 0 
0 0 0 0 0 0 0 0 0 
0 0 0 0 0 0 0 0 0 
0 0 0 0 0 0 0 0 0 
0 0 0 0 0 0 0 0 0 
0 0 0 0 0 0 0 0 0 
0 0 0 0 0 0 0 0 0 
0 0 0 0 0 0 0 0 0 
0 0 0 0 0 0 0 0 0 
0 0 0 0 0 0 0 0 0 
0 0 0 0 0 0 0 0 0 
0 0 0 0 0 0 0 0 0 
0 0 0 0 0 0 0 0 0 
0 0 0 0 0 0 0 0 0 
0 0 0 0 0 0 0 0 0 
0 0 0 0 0 0 0 0 0 
0 0 0 0 0 0 0 0 0 
0 0 0 0 0 0 0 0 0 
0 0 0 0 0 0 0 0 0 
0 0 0 0 0 0 0 0 0 
0 0 0 0 0 0 0 0 0 
0 0 0 0 0 0 0 0 0 
0 0 0 0 0 0 0 0 0 
0 0 0 0 0 0 0 0 0 
0 0 0 0 0 0 0 0 0 
0 0 0 0 0 0 0 0 0 
0 0 0 0 0 0 0 0 0 
0 0 0 0 0 0 0 0 0 
0 0 0 0 0 0 0 0 0 
0 0 0 0 0 0 0 0 0 
0 0 0 0 0 0 0 0 0 
0 0 0 0 0 0 0 0 0 
0 0 0 0 0 0 0 0 0 
0 0 0 0 0 0 0 0 0 
0 0 0 0 0 0 0 0 0 
0 0 0 0 0 0 0 0 0 
0 0 0 0 0 0 0 0 0 
0 0 0 0 0 0 0 0 0 
0 0 0 0 0 0 0 0 0 
0 0 0 0 0 0 0 0 0 
0 0 0 0 0 0 0 0 0 
0 0 0 0 0 0 0 0 0 
0 0 0 0 0 0 0 0 0 
0 0 0 0 0 0 0 0 0 
0 0 0 0 0 0 0 0 0 
0 0 0 0 0 0 0 0 0 
0 0 0 0 0 0 0 0 0 
0 0 0 0 0 0 0 0 0 
0 0 0 0 0 0 0 0 0 
0 0 0 0 0 0 0 0 0 
0 0 0 0 0 0 0 0 0 
0 0 0 0 0 0 0 0 0 
0 0 0 0 0 0 0 0 0 
0 0 0 0 0 0 0 0 0 
0 0 0 0 0 0 0 0 0 
0 0 0 0 0 0 0 0 0 
0 0 0 0 0 0 0 0 0 
0 0 0 0 0 0 0 0 0 
0 0 0 0 0 0 0 0 0 
0 0 0 0 0 0 0 0 0 
0 0 0 3.67717e-12 0 0 0 0 0 
0 0 0 0 0 0 0 0 0 
0 0 0 0 0 0 0 0 0 
0 0 0 0 0 0 0 0 0 
0 0 0 0 0 0 0 0 0 
0 0 0 0 0 0 0 0 0 
0 0 0 0 0 0 0 0 0 
0 0 0 0 0 0 0 0 0 
0 0 0 0 0 0 0 0 0 
0 0 0 0 0 0 0 0 0 
0 0 0 0 0 0 0 0 0 
0 0 0 0 0 0 0 0 0 
0 0 0 0 0 0 0 0 0 
0 0 0 0 0 0 0 0 0 
0 0 0 0 0 0 0 0 0 
0 0 0 0 0 0 0 0 0 
0 0 0 0 0 0 0 0 0 
0 0 0 0 0 0 0 0 0 
0 0 0 0 0 0 0 0 0 
0 0 0 0 0 0 0 0 0 
0 0 0 0 0 0 0 0 0 
0 0 0 0 0 0 0 0 0 
0 0 0 0 0 0 0 0 5.45269e-12 
0 0 0 0 0 0 0 0 0 
0 0 0 0 0 0 0 0 0 
0 0 0 0 0 0 0 0 0 
0 0 0 0 0 0 0 0 0 
0 0 0 0 0 0 0 0 0 
0 0 0 0 0 0 0 0 0 
0 0 0 0 0 0 0 0 0 
0 0 0 0 0 0 0 0 0 
0 0 0 0 0 0 0 0 0 
0 0 0 0 0 0 0 0 0 
0 0 0 0 0 0 0 0 0 
0 0 0 0 0 0 0 0 0 
0 0 0 0 0 0 0 0 0 
0 0 0 0 0 0 0 0 0 
0 0 0 0 0 0 0 0 0 
0 0 0 0 0 0 0 0 0 
0 0 0 0 0 0 0 0 0 
0 0 0 0 0 0 0 0 0 
0 0 0 0 0 0 0 0 0 
0 0 0 0 0 0 0 0 0 
0 0 0 0 0 0 0 0 0 
0 0 0 0 0 0 0 0 0 
0 0 0 0 0 0 0 0 0 
0 0 0 0 0 0 0 0 0 
0 0 0 0 0 0 0 0 0 
0 0 0 0 0 0 0 0 0 
0 0 0 0 0 0 0 0 0 
0 0 0 0 0 0 0 0 0 
0 0 0 0 0 0 0 0 0 
0 0 0 0 0 0 0 0 0 
0 0 0 0 0 0 0 0 0 
0 0 0 0 0 0 0 0 1.11279e-11 
0 0 0 0 0 0 0 0 0 
0 0 0 0 0 0 0 0 0 
0 0 0 0 0 0 0 0 0 
0 0 0 0 0 0 0 0 0 
0 0 0 0 0 0 0 0 0 
0 0 0 0 0 0 0 0 0 
0 0 0 0 0 0 0 0 0 
0 0 0 0 0 0 0 0 0 
0 0 0 0 0 0 0 0 0 
0 0 0 0 0 0 0 0 0 
0 0 0 0 0 0 0 0 0 
0 0 0 0 0 0 0 0 0 
0 0 0 0 0 0 0 0 0 
0 0 0 0 0 0 0 0 0 
0 0 0 0 0 0 0 0 0 
0 0 0 0 0 0 0 0 0 
0 0 0 0 0 0 0 0 0 
0 0 0 0 0 0 0 0 0 
0 0 0 0 0 0 0 0 0 
0 0 0 0 0 1.44956e-11 0 0 0 
0 0 0 0 0 0 0 0 0 
0 1.86615e-11 0 0 0 0 0 0 0 
0 0 0 0 0 0 0 0 0 
0 0 0 0 8.68625e-12 0 0 0 0 
0 0 0 0 0 0 0 0 0 
0 0 0 0 0 0 0 0 0 
0 0 0 0 0 0 0 0 0 
0 0 0 0 0 0 0 0 0 
0 0 0 0 1.0537e-11 0 0 0 0 
0 0 0 0 0 0 0 0 0 
0 0 0 0 0 0 0 0 0 
0 0 0 0 0 0 0 0 0 
0 0 0 0 0 0 0 0 0 
0 0 0 0 0 0 0 0 0 
0 0 0 0 0 0 0 0 0 
0 0 0 0 0 0 0 0 0 
0 0 0 0 0 0 0 0 0 
0 0 0 0 0 0 0 0 0 
0 0 0 0 0 0 0 0 0 
0 0 0 0 0 0 0 0 0 
0 0 0 0 0 0 0 0 0 
0 0 0 0 0 0 0 0 0 
0 0 0 0 0 0 0 5.28812e-12 0 
0 0 0 0 0 0 0 0 6.35351e-12 
0 0 0 0 0 0 0 0 0 
0 0 3.43333e-12 0 0 0 0 0 0 
0 0 0 0 0 0 0 0 0 
0 0 0 0 0 0 0 0 0 
0 0 0 0 0 0 0 0 0 
0 0 0 0 0 0 0 0 0 
0 0 0 0 0 1.86494e-11 0 0 0 
0 0 0 0 0 0 0 0 0 
0 0 0 0 0 0 0 0 0 
0 0 0 0 0 0 0 0 0 
0 0 0 0 0 0 0 0 0 
0 0 0 0 0 0 0 0 0 
0 0 0 0 8.77401e-13 0 0 0 0 
0 0 3.10932e-12 0 0 0 0 0 0 
0 0 0 0 0 0 0 3.78858e-12 0 
0 0 0 0 0 0 0 0 0 
0 0 0 0 0 0 0 0 0 
0 0 0 0 0 0 0 0 0 
1.24981e-13 0 0 0 0 0 0 0 0 
0 0 0 0 0 0 0 0 0 
0 0 0 0 0 0 0 0 0 
0 0 0 0 0 0 0 0 0 
0 0 0 0 0 0 0 0 0 
0 0 0 0 0 0 0 0 0 
0 0 0 0 0 0 0 0 0 
0 0 0 0 0 0 0 0 0 
0 0 0 0 0 0 0 0 0 
2.99671e-12 0 0 0 0 0 0 0 0 
0 0 0 0 0 1.17648e-11 0 0 0 
0 0 0 0 0 0 0 0 0 
0 0 0 0 0 1.69186e-11 0 0 0 
0 0 0 0 0 0 0 0 0 
0 0 0 0 0 0 2.78157e-11 0 0 
1.61823e-11 0 0 0 0 0 0 0 0 
3.02924e-11 0 0 0 0 0 0 0 0 
0 1.82643e-11 0 0 0 0 0 0 0 
0 0 0 0 0 0 0 0 0 
0 0 0 0 0 0 0 0 0 
0 0 0 0 0 0 1.24338e-11 0 0 
0 0 0 0 0 0 0 0 0 
0 0 0 0 0 0 0 0 0 
0 0 0 0 0 0 0 0 0 
0 0 0 0 0 0 0 0 0 
0 0 0 0 0 0 0 0 0 
0 0 0 0 0 0 0 0 0 
0 0 0 0 0 0 0 0 0 
0 0 0 0 0 0 0 0 0 
0 0 0 0 0 0 0 0 0 
0 0 0 0 0 0 0 0 0 
0 0 0 0 0 0 0 0 0 
0 0 0 0 0 0 0 0 0 
0 0 0 0 0 0 0 0 0 
0 0 0 0 0 0 0 0 0 
0 0 0 0 0 0 0 4.51424e-12 0 
0 0 0 0 0 0 0 0 0 
0 0 1.43145e-11 0 0 0 0 0 0 
0 0 1.51922e-11 1.06689e-11 0 0 0 0 0 
0 0 0 0 0 0 0 0 0 
0 0 0 0 0 0 0 0 2.05363e-12 
0 0 1.3272e-11 0 0 0 0 0 0 
0 0 0 0 0 0 0 0 0 
0 0 0 0 0 0 0 0 0 
0 0 0 0 0 0 0 0 0 
0 2.31142e-11 0 0 0 0 0 0 0 
1.03232e-11 0 0 0 0 0 4.68862e-12 0 0 
0 0 1.28825e-11 0 0 0 0 0 0 
0 0 0 0 0 0 0 1.22336e-11 0 
0 0 0 0 0 0 1.39495e-11 0 0 
0 0 0 0 0 0 0 0 0 
0 0 0 0 0 0 5.16048e-12 0 0 
0 0 0 0 0 0 0 0 0 
0 0 0 0 0 0 0 0 0 
0 0 0 0 0 0 0 0 0 
0 0 0 0 0 0 0 0 0 
0 0 0 1.1489e-11 0 0 0 0 0 
0 0 0 0 0 0 0 0 0 
0 0 0 0 0 0 0 0 0 
0 0 0 0 0 0 0 0 0 
0 0 0 0 0 0 0 0 0 
0 0 0 0 0 0 0 0 0 
0 0 0 0 0 0 0 0 0 
0 0 0 0 0 0 0 0 0 
0 0 0 0 0 0 0 0 0 
0 0 0 0 2.38668e-11 0 0 0 0 
0 0 0 0 0 0 0 0 0 
0 0 0 1.40691e-11 0 0 0 0 0 
3.8009e-11 0 0 0 0 0 0 1.87938e-12 0 
0 0 0 0 0 0 0 0 0 
0 2.6767e-11 0 0 0 0 0 5.83198e-11 0 
0 0 0 0 0 0 0 0 0 
0 0 0 0 0 0 0 0 0 
3.80597e-11 0 0 0 0 1.75925e-11 0 0 0 
0 0 0 0 0 0 1.34597e-11 0 0 
0 0 0 0 0 0 0 0 0 
3.11803e-11 0 0 0 0 3.57535e-11 0 0 0 
0 0 0 0 0 2.01696e-11 0 0 0 
0 0 0 0 0 0 1.15795e-11 0 0 
0 0 0 0 0 0 0 0 0 
0 0 0 0 0 0 0 0 0 
0 0 0 1.46914e-12 0 0 0 0 0 
0 0 0 0 0 0 0 0 0 
0 0 0 0 0 0 0 0 0 
0 0 0 0 0 0 0 0 0 
7.75089e-12 0 0 0 0 0 0 0 0 
0 0 0 0 0 0 0 0 0 
0 0 0 0 0 0 0 0 0 
0 0 0 0 0 0 0 0 0 
0 0 0 0 0 0 0 0 0 
0 0 0 0 0 0 0 6.55094e-12 0 
0 0 0 0 0 0 0 0 0 
0 0 0 0 0 0 1.38094e-11 0 0 
2.62826e-11 0 0 0 0 0 0 0 0 
0 0 0 0 0 1.65655e-11 0 0 0 
0 0 0 0 1.91641e-11 0 0 0 0 
0 0 0 0 0 3.85597e-11 0 0 0 
0 0 0 0 0 0 0 0 0 
0 0 0 2.05851e-11 7.36029e-11 0 0 3.41599e-11 0 
4.64172e-11 0 0 0 0 0 0 0 0 
0 0 0 4.6503e-11 0 0 0 0 0 
0 0 0 0 0 0 0 0 0 
0 0 0 0 0 0 0 0 0 
0 0 0 0 0 0 0 0 0 
0 0 0 6.00825e-11 2.04506e-11 0 0 0 0 
0 0 0 0 5.19095e-12 0 0 0 0 
0 0 0 0 0 0 0 0 0 
0 0 1.23289e-11 0 0 0 0 0 0 
0 0 0 0 0 0 0 0 0 
0 0 0 0 0 0 0 0 0 
0 0 0 0 0 0 0 0 0 
0 0 0 0 0 0 0 0 3.22435e-11 
0 0 0 0 0 0 0 0 0 
0 0 0 0 0 1.93217e-12 0 0 0 
0 0 0 0 0 0 0 0 0 
0 0 0 0 0 0 0 0 0 
0 0 0 0 0 0 0 0 0 
0 0 0 0 0 0 0 0 0 
0 0 0 0 0 0 0 0 0 
0 0 0 0 0 0 0 0 0 
0 0 0 0 0 0 0 0 0 
0 0 0 0 5.57968e-11 0 0 0 0 
0 0 0 0 0 0 0 0 0 
0 0 0 2.53718e-11 0 0 0 0 0 
0 0 0 0 2.37753e-11 0 0 0 0 
0 0 0 0 3.52416e-12 7.17559e-11 0 0 0 
0 2.79383e-12 5.99849e-11 1.04004e-10 0 0 0 0 0 
0 0 0 0 0 0 0 0 0 
4.43167e-11 4.62328e-11 0 0 6.05549e-11 0 0 0 0 
3.36184e-11 0 0 0 0 0 0 0 0 
0 0 0 0 0 0 0 0 0 
0 0 0 0 0 0 5.68848e-11 0 0 
0 0 0 0 4.69311e-11 0 0 1.23898e-11 0 
8.47473e-12 0 0 0 0 0 0 0 0 
0 0 0 0 0 0 0 0 0 
0 0 0 0 0 0 0 0 0 
0 2.35439e-11 0 0 0 0 0 0 0 
0 0 0 0 0 0 0 0 0 
0 0 0 0 0 0 0 0 0 
0 1.67663e-11 0 0 4.78257e-12 0 0 0 0 
0 0 0 0 0 0 0 0 0 
0 0 0 0 0 0 0 0 0 
0 0 0 0 0 0 0 0 0 
0 0 0 0 0 0 0 0 0 
0 0 0 0 0 0 0 0 0 
0 0 0 0 0 0 0 0 0 
0 0 0 0 0 0 0 0 0 
0 0 0 0 0 1.47649e-11 0 0 0 
0 3.85649e-12 0 0 9.47754e-12 0 0 0 0 
0 0 4.10689e-11 3.62303e-12 0 0 0 5.13815e-11 0 
0 0 0 0 0 2.23016e-11 0 0 0 
0 0 0 0 0 0 2.07105e-10 0 0 
0 0 0 3.80259e-11 0 0 0 2.53892e-11 0 
0 0 0 0 0 0 0 0 0 
0 0 0 0 0 1.27937e-11 7.99353e-11 0 0 
0 0 0 0 7.31147e-11 6.14965e-11 0 5.33086e-11 0 
0 0 0 0 0 2.31502e-11 0 0 2.65538e-11 
2.94171e-11 0 0 0 0 0 2.51767e-11 0 0 
0 0 0 0 0 0 0 0 4.88194e-11 
0 0 0 0 9.01783e-11 0 1.40542e-10 8.82116e-11 1.37756e-10 
0 3.56869e-11 0 0 0 0 0 0 0 
5.74487e-11 0 4.27506e-11 0 0 0 4.87536e-12 0 0 
0 0 0 0 1.53414e-11 0 0 2.9308e-11 0 
0 0 1.89337e-11 0 0 0 0 0 0 
0 0 0 0 0 0 0 0 0 
0 0 0 0 0 0 0 0 0 
0 0 0 0 0 0 0 0 0 
0 0 2.11447e-11 0 0 0 0 3.38111e-11 0 
0 0 0 0 0 0 0 0 0 
0 0 0 0 0 0 0 0 0 
0 0 0 0 0 0 0 0 0 
0 0 0 0 0 0 0 0 0 
0 0 0 0 0 0 0 0 0 
0 0 0 0 0 0 0 0 0 
0 0 0 0 0 0 0 0 0 
0 5.62887e-11 0 0 0 1.27285e-11 0 0 0 
0 0 0 0 0 3.90293e-11 0 0 0 
0 2.40178e-10 0 0 5.88128e-11 0 0 0 0 
0 0 0 2.09967e-11 0 0 0 0 0 
0 0 0 2.01455e-10 2.43283e-08 0 0 0 0 
0 0 0 0 3.71427e-11 0 0 0 0 
0 0 0 0 2.39009e-10 0 0 0 0 
0 0 0 0 0 0 0 0 5.79209e-11 
0 0 0 0 0 0 0 0 0 
0 0 0 0 0 0 0 0 3.47238e-11 
0 0 2.00716e-11 0 0 0 0 0 0 
0 0 4.95661e-11 0 0 0 0 0 0 
0 0 6.32917e-11 0 0 0 0 0 0 
1.24423e-10 0 0 0 0 8.97703e-11 5.0833e-11 0 0 
0 0 0 0 0 0 0 0 0 
0 2.41447e-11 0 0 0 0 0 0 0 
0 0 0 0 0 0 0 0 0 
0 0 0 0 0 0 0 0 0 
0 0 0 0 0 0 0 0 0 
0 0 0 0 0 0 0 0 0 
0 0 0 6.5778e-11 0 0 0 0 0 
0 0 0 0 0 0 0 0 0 
0 0 0 0 0 0 0 0 0 
0 0 0 0 0 0 0 0 0 
0 0 0 0 0 0 0 0 0 
0 0 0 0 0 0 0 0 0 
0 0 0 0 0 0 0 0 0 
0 0 0 0 1.92549e-11 0 0 0 0 
0 0 0 4.64037e-11 0 0 2.34984e-11 0 0 
0 8.20036e-12 0 0 0 0 0 0 0 
0 0 0 0 0 0 0 0 0 
0 1.36165e-11 0 0 0 0 4.56335e-11 0 0 
0 0 0 1.72675e-10 0 0 4.54415e-11 0 1.83326e-11 
0 0 0 0 0 0 0 2.00057e-11 0 
3.07993e-11 1.34712e-10 2.54802e-08 0 0 3.0941e-12 0 0 0 
0 0 0 0 2.64899e-08 0 0 1.23958e-10 0 
0 0 5.2953e-11 0 0 1.00608e-10 1.4068e-10 0 0 
0 0 0 5.10806e-11 2.96712e-11 1.08718e-11 0 0 0 
0 0 0 0 0 2.03411e-11 0 0 0 
1.23115e-11 0 1.09653e-10 5.63016e-11 0 0 0 0 0 
0 0 0 2.52202e-08 0 0 0 2.87413e-11 1.53399e-10 
8.66486e-11 0 0 1.83873e-10 0 0 0 6.36514e-11 7.39449e-11 
0 0 3.29027e-11 0 0 3.25507e-11 0 0 0 
0 4.05108e-11 0 0 0 0 0 0 0 
0 0 0 0 0 0 0 3.17678e-11 0 
0 0 0 0 0 0 0 0 0 
0 0 0 0 0 0 1.3472e-11 0 0 
0 0 0 0 0 1.16217e-12 0 0 0 
0 0 0 0 0 0 0 0 0 
0 0 1.51441e-11 0 0 0 0 0 0 
0 0 0 0 0 0 0 0 0 
0 0 0 0 0 0 0 0 0 
0 0 0 0 0 0 0 0 0 
0 0 0 0 0 0 0 0 0 
0 0 0 0 0 0 0 0 0 
0 0 0 0 0 7.77952e-11 8.62106e-11 0 0 
0 0 0 0 0 0 0 0 0 
0 1.53707e-10 0 0 0 0 0 0 0 
0 0 0 0 0 0 4.00085e-11 0 0 
0 0 0 0 0 0 8.22778e-11 8.22912e-11 0 
0 0 1.02021e-10 7.88196e-11 0 0 2.10767e-11 0 0 
0 0 0 0 0 4.06737e-11 0 0 0 
1.32302e-10 0 0 0 1.45096e-10 0 0 0 0 
0 0 1.72198e-10 0 0 0 0 0 6.11351e-11 
2.52762e-11 0 7.69671e-11 0 0 0 2.46557e-08 2.24032e-10 0 
3.49341e-11 0 0 0 0 1.78386e-11 1.97914e-11 0 0 
0 0 4.10337e-11 0 0 8.76934e-11 0 0 0 
1.0164e-10 0 0 0 7.59308e-11 0 0 0 1.37317e-10 
0 0 0 3.40837e-11 0 1.66914e-10 0 0 0 
1.06921e-10 0 0 0 5.08381e-11 6.32085e-11 0 6.63897e-12 0 
0 0 0 3.1598e-11 0 0 0 0 0 
0 0 0 7.01998e-11 0 0 0 8.38273e-11 0 
0 0 5.48178e-11 0 0 0 0 0 0 
0 0 0 0 0 0 0 0 0 
0 0 0 0 0 0 0 0 0 
0 0 1.83589e-11 8.95986e-11 1.95768e-11 0 0 0 0 
0 5.99205e-11 0 3.70329e-11 3.08122e-11 0 0 1.88106e-12 0 
0 0 0 0 0 0 0 0 0 
0 0 0 0 0 0 0 0 0 
0 0 0 0 0 0 0 0 0 
0 0 0 0 0 0 0 0 0 
0 0 0 0 0 0 0 0 0 
0 0 0 0 0 0 0 0 0 
0 0 0 5.76136e-11 0 6.96711e-11 0 0 0 
0 0 0 4.10893e-11 0 0 0 0 0 
0 2.63491e-08 0 2.43064e-10 0 0 0 0 0 
0 1.20055e-10 0 0 0 0 0 0 4.2274e-11 
2.08664e-11 0 0 0 0 2.71959e-11 6.44039e-11 0 0 
0 3.68631e-11 0 0 0 0 0 0 0 
0 0 0 2.46829e-11 0 0 5.04311e-11 0 0 
3.34986e-11 0 0 2.93508e-11 0 0 0 0 0 
0 0 0 0 0 0 5.20032e-11 0 0 
0 1.20044e-10 0 0 0 0 3.63101e-10 0 0 
0 0 0 3.21159e-11 0 0 0 1.39781e-11 0 
0 0 0 8.34163e-11 0 2.20353e-10 0 0 6.18843e-11 
0 0 0 4.71158e-11 5.18564e-11 2.7006e-11 0 0 0 
0 0 0 0 0 2.94496e-10 2.7337e-08 2.68427e-10 0 
0 0 1.14426e-10 0 0 9.07852e-11 0 0 0 
1.12802e-11 0 0 0 0 0 0 0 0 
0 0 1.21463e-10 0 0 0 0 0 6.4751e-11 
0 0 0 0 0 1.02606e-11 0 0 0 
0 0 0 0 0 0 0 0 0 
0 0 0 0 3.69711e-11 0 0 0 0 
0 0 7.62495e-11 0 0 2.34481e-10 0 0 0 
0 0 0 0 0 0 0 0 0 
0 1.82123e-11 9.87152e-12 0 0 5.56329e-12 0 0 0 
0 0 0 0 0 0 0 0 0 
0 0 0 0 0 0 0 0 0 
0 0 0 0 0 0 0 0 0 
0 0 0 0 0 0 0 0 0 
0 0 0 0 0 0 0 0 0 
0 6.49688e-11 0 0 2.47361e-08 0 0 0 0 
4.12371e-11 0 0 0 0 0 0 0 0 
3.51677e-10 0 0 0 0 2.43704e-11 1.36763e-10 0 0 
1.5213e-10 0 0 0 8.21753e-11 0 0 0 0 
0 0 3.68425e-11 1.21402e-11 0 0 3.88727e-11 0 0 
0 0 0 0 0 3.01535e-11 0 0 0 
0 0 1.21364e-10 0 0 2.45559e-10 2.00362e-10 0 0 
0 0 6.69702e-11 9.74375e-11 0 0 1.5726e-10 0 0 
4.68794e-11 0 0 2.3523e-12 0 0 1.02124e-10 9.65847e-11 0 
1.44228e-10 0 1.54484e-10 0 0 9.56634e-11 0 5.80968e-11 0 
0 0 1.92496e-11 0 0 0 0 0 0 
4.36805e-11 0 0 2.44681e-08 1.59073e-10 0 1.02734e-10 0 0 
0 0 0 0 0 9.83387e-11 0 0 1.49335e-10 
0 0 0 0 0 1.83101e-10 0 0 1.98612e-10 
0 0 0 0 0 0 1.62231e-10 0 3.55106e-11 
0 0 0 0 9.76895e-12 0 0 0 1.22335e-10 
0 0 0 6.662e-11 1.55381e-10 0 0 0 0 
0 0 0 0 0 0 0 0 0 
0 0 0 0 0 0 0 0 0 
0 0 0 0 0 0 1.18785e-10 0 0 
0 0 0 2.4954e-08 0 0 0 0 7.32363e-11 
0 0 0 0 0 0 0 0 0 
0 7.30054e-12 0 0 0 0 0 0 0 
0 0 0 0 0 0 0 0 0 
0 0 0 0 0 0 0 0 0 
0 0 0 0 0 0 0 0 0 
0 0 0 0 0 0 0 0 0 
0 0 0 0 0 0 0 0 3.48854e-12 
0 0 8.48646e-11 1.13872e-10 3.58379e-11 0 0 0 0 
0 0 0 0 0 0 0 0 0 
2.22734e-10 0 0 6.841e-12 0 1.09007e-10 1.41598e-10 4.61929e-11 0 
0 0 0 0 0 0 0 0 0 
0 0 0 0 0 0 0 6.77492e-11 0 
0 0 0 0 3.06489e-11 0 0 0 0 
6.37141e-11 0 0 0 1.53482e-10 0 4.56987e-11 0 0 
2.89825e-10 0 0 3.05609e-10 0 0 0 0 0 
0 0 0 0 0 6.0552e-11 0 0 2.28334e-10 
0 0 0 0 4.99723e-11 0 0 0 0 
0 0 0 0 0 0 0 0 0 
0 0 0 0 9.75353e-11 0 0 0 0 
6.97739e-11 0 0 3.00409e-11 0 0 8.59138e-12 0 1.04599e-10 
0 0 0 0 0 2.77844e-10 2.71369e-08 0 0 
0 0 0 0 0 5.7674e-11 0 0 0 
0 0 0 0 7.49045e-11 0 1.6543e-10 8.5179e-11 0 
0 0 0 0 0 5.05566e-11 1.80908e-10 0 0 
0 0 1.34169e-11 0 0 0 0 0 0 
0 0 0 0 0 0 0 0 0 
0 0 0 0 5.24512e-11 0 0 2.21498e-11 3.20563e-11 
0 0 0 0 3.00939e-11 0 0 6.46372e-11 4.51607e-11 
0 0 0 0 0 0 0 0 0 
0 0 0 0 0 0 0 0 0 
0 0 0 0 0 0 0 0 0 
0 0 0 0 0 0 0 0 0 
0 0 0 0 0 0 0 0 0 
0 0 0 0 0 0 0 0 0 
0 0 0 0 0 0 7.04887e-11 1.52675e-11 0 
1.10191e-10 0 0 0 0 0 6.6353e-12 0 1.99276e-10 
0 0 0 1.73584e-11 0 2.66881e-10 0 0 2.16176e-10 
0 0 0 0 2.68277e-08 0 0 4.4132e-11 0 
0 0 0 0 0 0 0 0 0 
0 0 0 0 0 0 0 0 0 
0 0 3.90102e-12 0 0 5.94654e-11 6.86103e-11 0 0 
0 5.04365e-12 0 0 0 0 0 0 0 
0 0 0 0 0 0 0 0 0 
0 1.83187e-11 1.81045e-10 1.05797e-10 0 0 1.72455e-11 0 0 
0 0 0 0 0 0 0 0 0 
0 0 0 9.54724e-11 0 0 0 0 3.07985e-11 
0 0 1.41129e-10 0 0 1.06445e-11 0 0 0 
0 8.44794e-11 0 0 0 0 0 1.15911e-10 0 
0 0 0 2.34215e-10 0 0 0 0 0 
0 0 0 0 0 0 0 0 0 
0 0 0 0 0 2.15868e-10 2.70488e-08 0 0 
0 0 0 4.63047e-11 6.29335e-11 9.84646e-11 8.3782e-11 0 0 
0 0 0 0 0 0 0 0 0 
0 0 1.95466e-11 2.49508e-11 0 0 0 0 0 
0 0 0 4.21944e-11 0 1.37967e-10 4.12411e-11 0 0 
0 1.93652e-10 0 0 0 0 0 0 0 
0 0 0 0 0 0 0 0 0 
0 4.44669e-12 0 0 0 0 0 0 0 
0 0 0 0 0 0 0 0 0 
0 0 0 0 0 0 0 0 0 
0 0 0 0 0 0 0 0 0 
0 0 0 0 0 0 0 0 0 
0 0 0 1.35857e-11 0 5.23105e-11 0 0 0 
0 0 0 0 0 0 0 0 0 
0 1.37674e-10 0 0 0 0 0 0 0 
0 6.32247e-11 2.51047e-10 0 0 0 0 0 0 
4.18038e-11 0 0 0 0 0 0 0 0 
0 1.16949e-11 0 0 0 0 2.97727e-11 0 6.67336e-11 
0 0 0 6.78919e-11 7.37519e-11 0 0 0 0 
1.73285e-10 0 0 3.03471e-08 0 0 0 3.48499e-08 0 
0 0 0 0 0 1.07037e-10 0 0 1.70438e-10 
2.16389e-11 2.16904e-11 7.58688e-11 0 0 4.30701e-11 0 0 0 
5.62246e-11 0 0 0 0 0 0 0 0 
0 2.97608e-11 0 0 0 0 0 0 0 
2.5871e-11 0 0 0 0 0 0 0 5.70216e-11 
0 0 0 1.7181e-11 0 0 0 5.16736e-11 0 
7.75027e-11 0 0 0 0 0 0 8.85517e-11 4.51584e-11 
0 1.52777e-11 0 0 0 0 1.53959e-10 1.20007e-10 0 
0 0 0 0 0 0 0 0 0 
0 0 0 0 0 7.02441e-11 5.80921e-11 0 0 
0 0 0 0 0 0 0 0 0 
0 3.30635e-11 0 6.02706e-11 0 0 9.56086e-11 0 0 
0 0 9.48084e-11 0 0 0 0 0 0 
0 0 4.79259e-11 7.11888e-11 2.38714e-11 1.03054e-10 0 4.79349e-11 1.4094e-10 
0 0 0 0 0 0 0 0 0 
0 0 0 0 0 0 0 0 0 
0 0 0 0 0 0 0 0 0 
0 0 0 0 0 0 0 0 0 
0 0 0 0 0 0 0 0 0 
0 0 0 0 0 0 0 0 0 
0 3.97944e-11 0 9.01773e-11 0 6.61116e-11 0 0 0 
0 0 0 1.13225e-10 3.85828e-11 0 0 9.68128e-11 0 
0 0 0 0 0 0 2.02611e-10 0 0 
0 0 0 0 0 9.85678e-12 0 0 0 
0 0 0 0 0 0 1.00376e-10 0 0 
0 0 7.93283e-11 0 0 0 0 0 0 
0 0 0 0 0 0 0 1.85644e-10 0 
0 0 2.43811e-10 0 0 0 0 0 0 
0 0 0 0 2.63228e-08 0 0 0 0 
0 0 0 0 0 0 0 0 0 
0 5.75251e-11 0 0 0 0 4.25285e-11 0 1.30259e-11 
0 0 0 0 1.56757e-11 0 0 0 6.11123e-11 
0 0 0 0 1.3496e-10 0 0 0 0 
0 0 0 0 0 0 1.0425e-10 2.04227e-11 8.78779e-11 
6.56593e-11 9.43185e-11 0 0 0 0 1.21387e-10 0 0 
0 2.49745e-08 0 0 0 1.19925e-10 4.28113e-11 0 0 
0 1.92199e-10 0 0 0 0 2.839e-08 0 0 
6.6849e-11 0 0 0 0 0 0 0 0 
0 0 0 0 0 0 0 0 0 
0 4.21427e-11 0 0 0 1.0312e-10 5.94573e-11 0 3.19389e-11 
0 0 0 0 0 0 0 0 0 
0 0 0 0 0 0 1.19926e-10 0 7.86936e-11 
4.43694e-11 0 0 0 0 0 0 0 0 
0 0 0 0 0 0 0 0 0 
0 0 0 0 0 0 0 0 0 
0 0 0 0 0 0 0 0 0 
0 0 0 0 0 0 0 0 0 
0 0 0 0 0 0 0 0 0 
0 6.39112e-11 0 0 0 0 0 9.3111e-11 0 
3.91931e-10 0 1.46907e-10 0 3.01271e-11 7.15275e-11 0 0 0 
0 3.8591e-08 3.87869e-08 0 0 0 0 0 0 
0 0 0 1.25254e-11 0 0 0 0 0 
0 0 8.0794e-11 0 0 4.1234e-11 0 0 0 
0 0 0 0 0 0 0 0 0 
0 0 0 0 0 0 0 0 0 
0 0 0 0 3.34051e-08 0 0 2.13344e-10 0 
2.62111e-10 0 2.69009e-10 0 0 1.18402e-11 0 0 1.08705e-11 
0 0 0 0 0 0 0 0 0 
0 0 0 0 0 0 0 0 0 
0 7.1851e-11 0 0 0 0 0 0 0 
0 0 0 0 0 0 0 0 0 
0 0 0 1.10627e-10 0 0 0 1.68306e-10 0 
0 0 0 0 0 0 0 0 0 
0 0 0 0 1.01719e-10 5.11024e-11 0 2.12755e-10 0 
0 0 0 0 8.75033e-11 0 0 0 3.08129e-11 
1.84202e-11 0 0 0 0 0 0 0 0 
0 0 0 0 0 2.92155e-11 0 0 2.00815e-11 
0 0 0 0 2.62846e-10 0 0 1.35728e-10 0 
3.67522e-11 1.30313e-10 0 0 0 1.05253e-10 2.25827e-10 0 0 
0 0 0 0 0 0 0 0 0 
0 0 0 0 0 0 0 0 0 
0 0 0 0 0 0 0 0 0 
0 0 0 0 0 0 0 0 0 
0 0 0 0 0 0 0 0 0 
0 0 0 0 0 0 0 0 0 
0 0 0 0 0 0 0 0 0 
0 0 6.36875e-11 0 0 0 0 0 0 
0 1.46848e-11 0 0 0 0 8.09884e-11 0 0 
0 0 2.3744e-10 2.37338e-10 0 8.95293e-11 0 0 0 
0 0 3.74996e-11 0 0 0 0 0 0 
0 0 0 8.64733e-11 1.55289e-11 1.15923e-10 0 0 0 
0 0 7.9696e-11 0 0 0 0 0 0 
0 0 0 0 0 0 0 0 0 
0 4.8789e-10 0 0 0 6.99928e-11 0 0 0 
0 0 0 0 0 0 7.14758e-11 0 0 
0 0 0 0 5.02759e-11 0 0 4.79574e-11 0 
0 0 0 0 0 3.0512e-11 0 0 0 
0 0 0 0 1.23414e-11 0 0 0 0 
0 0 0 0 0 0 0 0 0 
0 3.22978e-11 4.70737e-11 0 0 0 0 0 0 
3.65532e-11 0 0 9.05106e-11 0 0 0 0 0 
0 0 0 0 0 0 0 5.38102e-11 0 
5.32425e-11 0 0 2.1235e-10 0 0 0 3.86618e-11 0 
0 0 0 0 0 0 0 0 0 
0 0 0 0 0 0 0 0 0 
1.94503e-10 1.65095e-10 2.68609e-08 0 0 1.88294e-10 0 0 0 
0 0 5.57405e-11 0 0 0 0 0 0 
0 1.32079e-10 0 0 0 0 0 0 0 
0 0 0 0 0 0 0 0 0 
0 0 0 0 0 0 0 0 0 
0 0 0 0 0 0 0 0 0 
0 0 0 0 0 0 0 0 0 
0 0 0 0 0 0 0 0 0 
0 0 0 0 0 0 0 4.56812e-11 0 
0 0 0 0 0 2.68499e-08 0 3.85888e-10 1.20204e-10 
0 0 0 0 2.74012e-10 2.98867e-10 0 0 0 
4.87111e-11 1.96746e-10 0 0 1.13737e-10 1.2168e-10 0 0 0 
0 0 0 0 0 0 0 0 0 
0 0 0 4.11611e-11 1.00896e-10 9.83221e-11 0 3.06958e-10 0 
0 1.91705e-11 0 0 0 0 6.07404e-11 0 0 
0 0 0 1.01399e-10 2.1182e-11 0 3.91597e-11 0 0 
0 0 0 0 1.03312e-10 0 1.73674e-11 6.5168e-11 9.56527e-12 
9.65157e-11 0 0 1.80544e-11 5.63217e-12 0 0 5.35473e-11 0 
0 0 0 0 0 0 0 0 0 
0 0 0 0 3.1483e-11 0 0 0 0 
0 0 0 0 0 0 0 0 0 
0 0 0 0 0 0 0 0 4.78073e-12 
0 0 1.20479e-10 2.23177e-10 0 0 0 0 0 
0 0 0 7.96889e-11 0 5.4024e-11 1.96207e-11 0 1.77178e-11 
1.31121e-10 0 0 0 0 0 0 0 1.90752e-10 
2.77238e-10 0 0 0 9.96435e-11 0 0 0 0 
1.12623e-11 0 0 0 0 0 0 0 0 
0 0 0 0 0 0 0 0 0 
1.10699e-10 8.92314e-11 0 0 0 0 0 0 0 
0 0 2.0205e-10 2.99058e-11 4.1179e-11 1.10861e-10 0 3.11632e-08 0 
0 0 0 0 0 1.46251e-12 0 0 0 
0 0 0 0 0 0 0 0 0 
0 0 0 0 0 0 0 0 0 
0 0 0 0 0 0 0 0 0 
0 0 0 0 0 0 0 0 0 
0 0 0 0 0 0 0 0 0 
0 0 0 0 0 0 0 2.47452e-10 0 
0 0 0 0 2.85026e-10 1.58162e-10 0 0 0 
0 0 0 1.88807e-10 0 0 0 0 0 
3.86207e-11 3.78895e-12 0 0 0 0 0 0 0 
0 0 0 0 0 0 0 0 0 
0 1.24188e-10 0 0 0 0 5.94875e-11 0 0 
0 0 0 5.24584e-11 0 3.78727e-11 0 0 0 
0 0 0 0 0 5.08797e-11 0 2.34939e-11 2.01828e-10 
0 0 0 0 0 0 0 0 0 
0 0 0 0 0 0 0 0 0 
0 5.62514e-11 0 0 0 0 0 0 0 
9.81675e-12 0 6.03378e-11 0 0 0 0 0 0 
1.20473e-10 0 0 0 0 0 0 0 9.26616e-11 
0 0 0 0 0 0 0 0 0 
0 0 0 0 0 0 4.15739e-11 8.05797e-11 0 
0 1.05116e-10 0 0 0 0 0 0 0 
1.00894e-10 0 0 0 0 0 0 0 0 
0 2.65281e-08 0 2.92493e-11 0 0 0 5.05348e-11 0 
0 0 0 0 0 0 0 0 0 
0 0 0 0 1.19222e-10 0 0 0 3.28111e-10 
0 0 0 1.44423e-10 0 1.96584e-10 1.86694e-10 0 0 
0 0 0 0 0 0 0 0 0 
0 0 3.58888e-11 0 0 0 0 0 0 
0 0 0 0 0 0 0 0 0 
0 0 0 0 0 0 0 0 0 
0 0 0 0 0 0 0 0 0 
0 0 0 0 0 0 0 0 0 
0 0 0 0 0 0 0 0 0 
0 0 0 0 0 0 1.30394e-10 0 0 
0 0 7.68749e-11 0 0 0 0 0 0 
0 0 0 0 0 0 0 0 0 
0 0 0 7.38257e-11 0 0 0 2.45462e-11 0 
0 0 0 0 0 0 0 0 0 
0 0 2.64815e-10 2.72013e-08 0 0 0 0 0 
0 0 0 0 0 0 0 5.33626e-11 0 
0 0 0 0 0 0 0 0 0 
0 0 0 0 0 0 0 0 0 
0 1.10917e-10 1.37489e-10 0 0 0 2.6544e-08 0 1.67673e-10 
0 0 0 0 0 0 4.6326e-11 0 0 
0 0 0 0 0 0 0 0 2.63465e-10 
9.47624e-11 0 0 2.74623e-08 0 0 0 0 0 
1.99734e-11 0 0 0 0 3.75702e-11 0 0 5.70361e-11 
0 0 0 0 0 0 1.01172e-10 0 0 
0 0 8.20232e-11 0 0 0 0 1.41485e-10 0 
0 0 0 0 1.39389e-10 0 0 0 0 
0 0 0 1.99938e-11 0 0 0 0 0 
0 0 0 0 2.12433e-11 0 0 2.29236e-12 0 
0 0 8.28599e-11 1.1459e-10 0 0 3.37067e-11 0 0 
0 0 0 0 0 0 0 0 0 
0 0 3.23644e-08 0 2.04663e-10 0 1.30122e-10 0 0 
0 0 0 0 0 0 0 0 0 
0 0 0 0 0 0 0 0 0 
0 0 0 0 0 0 0 0 0 
0 0 0 0 0 0 0 0 0 
0 0 0 0 0 0 0 0 0 
0 0 0 0 0 0 0 0 0 
4.63684e-11 8.24378e-11 0 0 0 0 0 0 0 
1.80374e-10 0 0 0 0 0 0 0 0 
0 1.32817e-10 1.9488e-10 1.74736e-10 0 0 0 0 0 
0 0 0 0 1.36866e-11 0 0 0 3.21825e-11 
0 0 0 0 2.58453e-08 0 0 1.79567e-10 0 
0 0 0 1.86223e-10 0 0 0 0 0 
0 0 0 0 2.70771e-08 0 0 0 0 
0 0 1.37528e-10 0 0 0 0 0 0 
0 0 0 0 0 0 0 0 0 
1.89246e-11 2.09877e-10 0 0 0 0 0 0 0 
0 0 0 0 0 0 0 0 0 
0 0 0 0 0 0 0 0 0 
0 0 2.68622e-10 0 0 0 0 0 0 
0 0 1.19126e-10 0 2.45547e-11 2.12995e-10 0 0 2.60236e-08 
0 0 0 0 0 0 0 0 0 
0 0 0 0 0 0 0 0 0 
0 0 0 0 0 0 0 0 0 
0 0 0 4.88261e-11 3.42525e-11 0 0 0 0 
1.11432e-11 0 0 3.39981e-11 0 0 0 0 0 
0 0 0 0 0 2.01983e-10 0 0 0 
0 0 0 2.67442e-10 0 1.50086e-10 0 0 0 
0 0 0 5.2082e-11 9.84878e-11 0 0 0 0 
0 0 0 0 0 0 0 0 0 
0 0 0 0 0 0 0 0 0 
0 0 0 0 0 0 0 0 0 
0 0 0 0 0 0 0 0 0 
0 0 0 0 0 0 0 0 0 
0 0 0 0 0 0 0 0 0 
9.30467e-11 0 1.33764e-10 2.62659e-08 0 0 0 0 0 
0 0 0 0 0 0 0 1.09804e-10 0 
0 0 0 3.42879e-11 0 0 0 0 0 
0 0 0 0 0 0 0 1.11306e-11 0 
0 0 0 0 0 0 0 0 0 
0 1.88262e-10 0 0 0 0 0 3.17073e-10 1.16313e-10 
0 0 0 0 2.17476e-10 1.15863e-10 0 0 0 
0 0 0 0 0 0 0 3.34274e-11 0 
0 0 0 0 0 0 0 1.55922e-10 0 
0 0 0 0 0 0 0 0 0 
0 0 0 0 0 7.15694e-12 0 0 0 