# vtk DataFile Version 5.1
vtk output
ASCII
DATASET STRUCTURED_POINTS
DIMENSIONS 250 250 1
SPACING 1 1 1
ORIGIN 0 0 0
POINT_DATA 62500
FIELD FieldData 6
feature_1 1 62500 float
0 0 0 0 0 0 0 0 0 
0 0 0 0 0 0 0 0 0 
0 0 0 0 0 0 0 0 0 
0 0 0 0 0 0 0 0 0 
0 0 0 0 0 0 0 0 0 
0 0 0 0 0 0 0 0 0 
0 0 0 0 0 0 0 0 0 
0 0 0 0 0 0 0 0 0 
0 0 0 0 0 0 0 0 0 
0 0 0 0 0 0 0 0 0 
0 0 0 0 0 0 0 0 0 
0 0 0 0 0 0 0 0 0 
0 0 0 0 0 0 0 0 0 
0 0 0 0 0 0 0 0 0 
0 0 0 0 0 0 0 0 0 
0 0 0 0 0 0 0 0 0 
0 0 0 0 0 0 0 0 0 
0 0 0 0 0 0 0 0 0 
0 0 0 0 0 0 0 0 0 
0 0 0 0 0 0 0 0 0 
0 0 0 0 0 0 0 0 0 
0 0 0 0 0 0 0 0 0 
0 0 0 0 0 0 0 0 0 
0 0 0 0 0 0 0 0 0 
0 0 0 0 0 0 0 0 0 
0 0 0 0 0 0 0 0 0 
0 0 0 0 0 0 0 0 0 
0 0 0 0 0 0 0 0 0 
0 0 0 0 0 0 0 0 0 
0 0 0 0 0 0 0 0 0 
0 0 0 0 0 0 0 0 0 
0 0 0 0 0 0 0 0 0 
0 0 0 0 0 0 0 0 0 
0 0 0 0 0 0 0 0 0 
0 0 0 0 0 0 0 0 0 
0 0 0 0 0 0 0 0 0 
0 0 0 0 0 0 0 0 0 
0 0 0 0 0 0 0 0 0 
0 0 0 0 0 0 0 0 0 
0 0 0 0 0 0 0 0 0 
0 0 0 0 0 0 0 0 0 
0 0 0 0 0 0 0 0 0 
0 0 0 0 0 0 0 0 0 
0 0 0 0 0 0 0 0 0 
0 0 0 0 0 0 0 0 0 
0 0 0 0 0 0 0 0 0 
0 0 0 0 0 0 0 0 0 
0 0 0 0 0 0 0 0 0 
0 0 0 0 0 0 0 0 0 
0 0 0 0 0 0 0 0 0 
0 0 0 0 0 0 0 0 0 
0 0 0 0 0 0 0 0 0 
0 0 0 0 0 0 0 0 0 
0 0 0 0 0 0 0 0 0 
0 0 0 0 0 0 0 0 0 
0 0 0 0 0 0 0 0 0 
0 0 0 0 0 0 0 0 0 
0 0 0 0 0 0 0 0 0 
0 0 0 0 0 0 0 0 0 
0 0 0 0 0 0 0 0 0 
0 0 0 0 0 0 0 0 0 
0 0 0 0 0 0 0 0 0 
0 0 0 0 0 0 0 0 0 
0 0 0 0 0 0 0 0 0 
0 0 0 0 0 0 0 0 0 
0 0 0 0 0 0 0 0 0 
0 0 0 0 0 0 0 0 0 
0 0 0 0 0 0 0 0 0 
0 0 0 0 0 0 0 0 0 
0 0 0 0 0 0 0 0 0 
0 0 0 0 0 0 0 0 0 
0 0 0 0 0 0 0 0 0 
0 0 0 0 0 0 0 0 0 
0 0 0 0 0 0 0 0 0 
0 0 0 0 0 0 0 0 0 
0 0 0 0 0 0 0 0 0 
0 0 0 0 0 0 0 0 0 
0 0 0 0 0 0 0 0 0 
0 0 0 0 0 0 0 0 0 
0 0 0 0 0 0 0 0 0 
0 0 0 0 0 0 0 0 0 
0 0 0 0 0 0 0 0 0 
0 0 0 0 0 0 0 0 0 
0 0 0 0 0 0 0 0 0 
0 0 0 0 0 0 0 0 0 
0 0 0 0 0 0 0 0 0 
0 0 0 0 0 0 0 0 0 
0 0 0 0 0 0 0 0 0 
0 0 0 0 0 0 0 0 0 
0 0 0 0 0 0 0 0 0 
0 0 0 0 0 0 0 0 0 
0 0 0 0 0 0 0 0 0 
0 0 0 0 0 0 0 0 0 
0 0 0 0 0 0 0 0 0 
0 0 0 0 0 0 0 0 0 
0 0 0 0 0 0 0 0 0 
0 0 0 0 0 0 0 0 0 
0 0 0 0 0 0 0 0 0 
0 0 0 0 0 0 0 0 0 
0 0 0 0 0 0 0 0 0 
0 0 0 0 0 0 0 0 0 
0 0 0 0 0 0 0 0 0 
0 0 0 0 0 0 0 0 0 
0 0 0 0 0 0 0 0 0 
0 0 0 0 0 0 0 0 0 
0 0 0 0 0 0 0 0 0 
0 0 0 0 0 0 0 0 0 
0 0 0 0 0 0 0 0 0 
0 0 0 0 0 0 0 0 0 
0 0 0 0 0 0 0 0 0 
0 0 0 0 0 0 0 0 0 
0 0 0 0 0 0 0 0 0 
0 0 0 0 0 0 0 0 0 
0 0 0 0 0 0 0 0 0 
0 0 0 0 0 0 0 0 0 
0 0 0 0 0 0 0 0 0 
0 0 0 0 0 0 0 0 0 
0 0 0 0 0 0 0 0 0 
0 0 0 0 0 0 0 0 0 
0 0 0 0 0 0 0 0 0 
0 0 0 0 0 0 0 0 0 
0 0 0 0 0 0 0 0 0 
0 0 0 0 0 0 0 0 0 
0 0 0 0 0 0 0 0 0 
0 0 0 0 0 0 0 0 0 
0 0 0 0 0 0 0 0 0 
0 0 0 0 0 0 0 0 0 
0 0 0 0 0 0 0 0 0 
0 0 0 0 0 0 0 0 0 
0 0 0 0 0 0 0 0 0 
0 0 0 0 0 0 0 0 0 
0 0 0 0 0 0 0 0 0 
0 0 0 0 0 0 0 0 0 
0 0 0 0 0 0 0 0 0 
0 0 0 0 0 0 0 0 0 
0 0 0 0 0 0 0 0 0 
0 0 0 0 0 0 0 0 0 
0 0 0 0 0 0 0 0 0 
0 0 0 0 0 0 0 0 0 
0 0 0 0 0 0 0 0 0 
0 0 0 0 0 0 0 0 0 
0 0 0 0 0 0 0 0 0 
0 0 0 0 0 0 0 0 0 
0 0 0 0 0 0 0 0 0 
0 0 0 0 0 0 0 0 0 
0 0 0 0 0 0 0 0 0 
0 0 0 0 0 0 0 0 0 
0 0 0 0 0 0 0 0 0 
0 0 0 0 0 0 0 0 0 
0 0 0 0 0 0 0 0 0 
0 0 0 0 0 0 0 0 0 
0 0 0 0 0 0 0 0 0 
0 0 0 0 0 0 0 0 0 
0 0 0 0 0 0 0 0 0 
0 0 0 0 0 0 0 0 0 
0 0 0 0 0 0 0 0 0 
0 0 0 0 0 0 0 0 0 
0 0 0 0 0 0 0 0 0 
0 0 0 0 0 0 0 0 0 
0 0 0 0 0 0 0 0 0 
0 0 0 0 0 0 0 0 0 
0 0 0 0 0 0 0 0 0 
0 0 0 0 0 0 0 0 0 
0 0 0 0 0 0 0 0 0 
0 0 0 0 0 0 0 0 0 
0 0 0 0 0 0 0 0 0 
0 0 0 0 0 0 0 0 0 
0 0 0 0 0 0 0 0 0 
0 0 0 0 0 0 0 0 0 
0 0 0 0 0 0 0 0 0 
0 0 0 0 0 0 0 0 0 
0 0 0 0 0 0 0 0 0 
0 0 0 0 0 0 0 0 0 
0 0 0 0 0 0 0 0 0 
0 0 0 0 0 0 0 0 0 
0 0 0 0 0 0 0 0 0 
0 0 0 0 0 0 0 0 0 
0 0 0 0 0 0 0 0 0 
0 0 0 0 0 0 0 0 0 
0 0 0 0 0 0 0 0 0 
0 0 0 0 0 0 0 0 0 
0 0 0 0 0 0 0 0 0 
0 0 0 0 0 0 0 0 0 
0 0 0 0 0 0 0 0 0 
0 0 0 0 0 0 0 0 0 
0 0 0 0 0 0 0 0 0 
0 0 0 0 0 0 0 0 0 
0 0 0 0 0 0 0 0 0 
0 0 0 0 0 0 0 0 0 
0 0 0 0 0 0 0 0 0 
0 0 0 0 0 0 0 0 0 
0 0 0 0 0 0 0 0 0 
0 0 0 0 0 0 0 0 0 
0 0 0 0 0 0 0 0 0 
0 0 0 0 0 0 0 0 0 
0 0 0 0 0 0 0 0 0 
0 0 0 0 0 0 0 0 0 
0 0 0 0 0 0 0 0 0 
0 0 0 0 0 0 0 0 0 
0 0 0 0 0 0 0 0 0 
0 0 0 0 0 0 0 0 0 
0 0 0 0 0 0 0 0 0 
0 0 0 0 0 0 0 0 0 
0 0 0 0 0 0 0 0 0 
0 0 0 0 0 0 0 0 0 
0 0 0 0 0 0 0 0 0 
0 0 0 0 0 0 0 0 0 
0 0 0 0 0 0 0 0 0 
0 0 0 0 0 0 0 0 0 
0 0 0 0 0 0 0 0 0 
0 0 0 0 0 0 0 0 0 
0 0 0 0 0 0 0 0 0 
0 0 0 0 0 0 0 0 0 
0 0 0 0 0 0 0 0 0 
0 0 0 0 0 0 0 0 0 
0 0 0 0 0 0 0 0 0 
0 0 0 0 0 0 0 0 0 
0 0 0 0 0 0 0 0 0 
0 0 0 0 0 0 0 0 0 
0 0 0 0 0 0 0 0 0 
0 0 0 0 0 0 0 0 0 
0 0 0 0 0 0 0 0 0 
0 0 0 0 0 0 0 0 0 
0 0 0 0 0 0 0 0 0 
0 0 0 0 0 0 0 0 0 
0 0 0 0 0 0 0 0 0 
0 0 0 0 0 0 0 0 0 
0 0 0 0 0 0 0 0 0 
0 0 0 0 0 0 0 0 0 
0 0 0 0 0 0 0 0 0 
0 0 0 0 0 0 0 0 0 
0 0 0 0 0 0 0 0 0 
0 0 0 0 0 0 0 0 0 
0 0 0 0 0 0 0 0 0 
0 0 0 0 0 0 0 0 0 
0 0 0 0 0 0 0 0 0 
0 0 0 0 0 0 0 0 0 
0 0 0 0 0 0 0 0 0 
0 0 0 0 0 0 0 0 0 
0 0 0 0 0 0 0 0 0 
0 0 0 0 0 0 0 0 0 
0 0 0 0 0 0 0 0 0 
0 0 0 0 0 0 0 0 0 
0 0 0 0 0 0 0 0 0 
0 0 0 0 0 0 0 0 0 
0 0 0 0 0 0 0 0 0 
0 0 0 0 0 0 0 0 0 
0 0 0 0 0 0 0 0 0 
0 0 0 0 0 0 0 0 0 
0 0 0 0 0 0 0 0 0 
0 0 0 0 0 0 0 0 0 
0 0 0 0 0 0 0 0 0 
0 0 0 0 0 0 0 0 0 
0 0 0 0 0 0 0 0 0 
0 0 0 0 0 0 0 0 0 
0 0 0 0 0 0 0 0 0 
0 0 0 0 0 0 0 0 0 
0 0 0 0 0 0 0 0 0 
0 0 0 0 0 0 0 0 0 
0 0 0 0 0 0 0 0 0 
0 0 0 0 0 0 0 0 0 
0 0 0 0 0 0 0 0 0 
0 0 0 0 0 0 0 0 0 
0 0 0 0 0 0 0 0 0 
0 0 0 0 0 0 0 0 0 
0 0 0 0 0 0 0 0 0 
0 0 0 0 0 0 0 0 0 
0 0 0 0 0 0 0 0 0 
0 0 0 0 0 0 0 0 0 
0 0 0 0 0 0 0 0 0 
0 0 0 0 0 0 0 0 0 
0 0 0 0 0 0 0 0 0 
0 0 0 0 0 0 0 0 0 
0 0 0 0 0 0 0 0 0 
0 0 0 0 0 0 0 0 0 
0 0 0 0 0 0 0 0 0 
0 0 0 0 0 0 0 0 0 
0 0 0 0 0 0 0 0 0 
0 0 0 0 0 0 0 0 0 
0 0 0 0 0 0 0 0 0 
0 0 0 0 0 0 0 0 0 
0 0 0 0 0 0 0 0 0 
0 0 0 0 0 0 0 0 0 
0 0 0 0 0 0 0 0 0 
0 0 0 0 0 0 0 0 0 
0 0 0 0 0 0 0 0 0 
0 0 0 0 0 0 0 0 0 
0 0 0 0 0 0 0 0 0 
0 0 0 0 0 0 0 0 0 
0 0 0 0 0 0 0 0 0 
0 0 0 0 0 0 0 0 0 
0 0 0 0 0 0 0 0 0 
0 0 0 0 0 0 0 0 0 
0 0 0 0 0 0 0 0 0 
0 0 0 0 0 0 0 0 0 
0 0 0 0 0 0 0 0 0 
0 0 0 0 0 0 0 0 0 
0 0 0 0 0 0 0 0 0 
0 0 0 0 0 0 0 0 0 
0 0 0 0 0 0 0 0 0 
0 0 0 0 0 0 0 0 0 
0 0 0 0 0 0 0 0 0 
0 0 0 0 0 0 0 0 0 
0 0 0 0 0 0 0 0 0 
0 0 0 0 0 0 0 0 0 
0 0 0 0 0 0 0 0 0 
0 0 0 0 0 0 0 0 0 
0 0 0 0 0 0 0 0 0 
0 0 0 0 0 0 0 0 0 
0 0 0 0 0 0 0 0 0 
0 0 0 0 0 0 0 0 0 
0 0 0 0 0 0 0 0 0 
0 0 0 0 0 0 0 0 0 
0 0 0 0 0 0 0 0 0 
0 0 0 0 0 0 0 0 0 
0 0 0 0 0 0 0 0 0 
0 0 0 0 0 0 0 0 0 
0 0 0 0 0 0 0 0 0 
0 0 0 0 0 0 0 0 0 
0 0 0 0 0 0 0 0 0 
0 0 0 0 0 0 0 0 0 
0 0 0 0 0 0 0 0 0 
0 0 0 0 0 0 0 0 0 
0 0 0 0 0 0 0 0 0 
0 0 0 0 0 0 0 0 0 
0 0 0 0 0 0 0 0 0 
0 0 0 0 0 0 0 0 0 
0 0 0 0 0 0 0 0 0 
0 0 0 0 0 0 0 0 0 
0 0 0 0 0 0 0 0 0 
0 0 0 0 0 0 0 0 0 
0 0 0 0 0 0 0 0 0 
0 0 0 0 0 0 0 0 0 
0 0 0 0 0 0 0 0 0 
0 0 0 0 0 0 0 0 0 
0 0 0 0 0 0 0 0 0 
0 0 0 0 0 0 0 0 0 
0 0 0 0 0 0 0 0 0 
0 0 0 0 0 0 0 0 0 
0 0 0 0 0 0 0 0 0 
0 0 0 0 0 0 0 0 0 
0 0 0 0 0 0 0 0 0 
0 0 0 0 0 0 0 0 0 
0 0 0 0 0 0 0 0 0 
0 0 0 0 0 0 0 0 0 
0 0 0 0 0 0 0 0 0 
0 0 0 0 0 0 0 0 0 
0 0 0 0 0 0 0 0 0 
0 0 0 0 0 0 0 0 0 
0 0 0 0 0 0 0 0 0 
0 0 0 0 0 0 0 0 0 
0 0 0 0 0 0 0 0 0 
0 0 0 0 0 0 0 0 0 
0 0 0 0 0 0 0 0 0 
0 0 0 0 0 0 0 0 0 
0 0 0 0 0 0 0 0 0 
0 0 0 0 0 0 0 0 0 
0 0 0 0 0 0 0 0 0 
0 0 0 0 0 0 0 0 0 
0 0 0 0 0 0 0 0 0 
0 0 0 0 0 0 0 0 0 
0 0 0 0 0 0 0 0 0 
0 0 0 0 0 0 0 0 0 
0 0 0 0 0 0 0 0 0 
0 0 0 0 0 0 0 0 0 
0 0 0 0 0 0 0 0 0 
0 0 0 0 0 0 0 0 0 
0 0 0 0 0 0 0 0 0 
0 0 0 0 0 0 0 0 0 
0 0 0 0 0 0 0 0 0 
0 0 0 0 0 0 0 0 0 
0 0 0 0 0 0 0 0 0 
0 0 0 0 0 0 0 0 0 
0 0 0 0 0 0 0 0 0 
0 0 0 0 0 0 0 0 0 
0 0 0 0 0 0 0 0 0 
0 0 0 0 0 0 0 0 0 
0 0 0 0 0 0 0 0 0 
0 0 0 0 0 0 0 0 0 
0 0 0 0 0 0 0 0 0 
0 0 0 0 0 0 0 0 0 
0 0 0 0 0 0 0 0 0 
0 0 0 0 0 0 0 0 0 
0 0 0 0 0 0 0 0 0 
0 0 0 0 0 0 0 0 0 
0 0 0 0 0 0 0 0 0 
0 0 0 0 0 0 0 0 0 
0 0 0 0 0 0 0 0 0 
0 0 0 0 0 0 0 0 0 
0 0 0 0 0 0 0 0 0 
0 0 0 0 0 0 0 0 0 
0 0 0 0 0 0 0 0 0 
0 0 0 0 0 0 0 0 0 
0 0 0 0 0 0 0 0 0 
0 0 0 0 0 0 0 0 0 
0 0 0 0 0 0 0 0 0 
0 0 0 0 0 0 0 0 0 
0 0 0 0 0 0 0 0 0 
0 0 0 0 0 0 0 0 0 
0 0 0 0 0 0 0 0 0 
0 0 0 0 0 0 0 0 0 
0 0 0 0 0 0 0 0 0 
0 0 0 0 0 0 0 0 0 
0 0 0 0 0 0 0 0 0 
0 0 0 0 0 0 1.33369e-12 0 0 
0 0 0 0 0 0 0 0 0 
0 0 0 0 0 0 0 0 0 
0 0 0 0 0 0 0 0 0 
0 0 0 0 0 0 0 0 0 
0 0 0 0 0 0 0 0 0 
0 0 0 0 0 0 0 0 0 
0 0 0 0 0 0 0 0 0 
0 0 0 0 0 0 0 0 0 
0 0 0 0 0 0 0 0 0 
0 0 0 0 0 0 0 0 0 
0 0 0 0 0 0 0 0 0 
0 0 0 0 0 0 0 0 0 
0 0 0 0 0 0 0 0 0 
0 0 0 0 0 0 0 0 0 
0 0 0 0 0 0 0 0 0 
0 0 0 0 0 0 0 0 0 
0 0 0 0 0 0 0 0 0 
0 0 0 0 0 0 0 0 0 
0 0 0 0 0 0 0 0 0 
0 0 0 0 0 0 0 0 0 
0 0 0 0 0 0 0 0 0 
0 0 0 0 0 0 0 0 0 
0 0 0 0 0 0 0 0 0 
0 0 0 0 0 0 0 0 0 
0 0 0 0 0 0 0 0 0 
0 0 0 0 0 0 0 0 0 
0 0 0 0 0 0 0 0 0 
0 0 0 0 0 0 0 0 0 
0 0 0 0 0 0 0 0 0 
0 0 0 0 0 0 0 0 0 
0 0 0 0 0 0 0 0 0 
0 0 0 0 0 0 0 0 0 
0 0 0 0 0 0 0 0 0 
0 0 0 0 0 0 0 0 0 
0 0 0 0 0 0 0 0 0 
0 0 0 0 0 0 0 0 0 
0 0 0 0 0 0 0 0 0 
0 0 0 0 0 0 0 0 0 
0 0 0 0 0 0 0 0 0 
0 0 0 0 0 0 0 0 0 
0 0 0 0 0 0 0 0 0 
0 0 0 0 0 0 0 0 0 
0 0 0 0 0 0 0 0 0 
0 0 0 0 0 0 0 0 0 
0 0 0 0 0 0 0 0 0 
0 0 0 0 0 0 0 0 0 
0 0 0 0 0 0 0 0 0 
0 0 0 0 0 0 0 0 0 
0 0 0 0 0 0 0 0 0 
0 0 0 0 0 0 0 0 0 
0 0 0 0 0 0 0 0 0 
0 0 0 0 0 0 0 0 0 
0 0 0 0 0 0 0 0 0 
0 0 0 0 0 0 0 0 0 
0 0 0 0 0 0 0 0 0 
0 0 0 0 0 0 0 0 0 
0 0 0 0 0 0 0 0 0 
0 0 0 0 0 0 0 0 0 
0 0 0 0 0 0 0 0 0 
0 0 0 0 0 0 0 0 0 
0 0 0 0 0 0 0 0 0 
0 0 0 0 0 0 0 0 0 
0 0 0 0 0 0 0 0 0 
0 0 0 0 0 0 0 0 0 
0 0 0 0 0 0 0 0 0 
0 0 0 0 0 0 0 0 0 
0 0 0 0 0 0 0 0 0 
0 0 0 0 0 0 0 0 0 
0 0 0 0 0 0 0 0 0 
0 0 0 0 0 0 0 0 0 
0 0 0 0 0 0 0 0 0 
0 0 0 0 0 0 0 0 0 
0 0 0 0 0 0 0 0 0 
0 0 0 0 0 0 0 0 0 
0 0 0 0 0 0 0 0 0 
0 0 0 0 0 0 0 0 0 
0 0 0 0 0 0 0 0 0 
0 0 0 0 0 0 0 0 0 
0 0 0 0 0 0 0 0 0 
0 0 0 0 0 0 0 0 0 
0 0 0 0 0 0 0 0 0 
0 0 0 0 0 0 0 0 0 
0 0 0 0 0 0 0 0 0 
0 0 0 0 0 0 0 0 0 
0 0 0 3.78379e-12 0 0 0 0 0 
0 0 0 0 0 0 0 0 0 
0 0 0 0 0 0 0 0 0 
0 0 0 0 0 0 0 0 0 
0 0 0 0 0 0 0 0 0 
0 0 0 0 0 0 0 0 0 
0 0 0 0 0 0 0 0 0 
0 0 0 0 0 0 0 0 0 
0 0 0 0 0 0 0 0 0 
0 0 0 0 0 0 0 0 0 
0 0 0 0 0 0 0 0 0 
0 0 0 0 0 0 0 0 0 
0 0 0 0 0 0 0 0 0 
0 0 0 0 0 0 0 0 0 
0 0 0 0 0 0 0 0 0 
0 0 0 0 0 0 0 0 0 
0 0 0 0 0 0 0 0 0 
0 0 0 0 0 0 0 0 0 
0 0 0 0 0 0 0 0 0 
0 0 0 0 0 0 0 0 0 
0 0 0 0 0 0 0 0 0 
0 0 0 0 0 0 0 0 0 
0 0 0 0 0 0 0 0 0 
0 0 0 0 0 0 0 0 0 
0 0 0 0 0 0 0 0 0 
0 0 0 0 0 0 0 0 0 
0 0 0 0 0 0 0 0 0 
0 0 0 0 0 0 0 0 0 
0 0 0 0 0 0 0 0 0 
0 0 0 0 0 0 0 0 0 
0 0 0 0 0 0 0 0 0 
0 0 0 0 0 0 0 0 0 
0 0 0 0 0 0 0 0 0 
0 0 0 0 0 0 0 0 0 
0 0 0 0 0 0 0 0 0 
0 0 0 0 0 0 0 0 0 
0 0 0 0 0 0 0 0 0 
0 0 0 0 0 0 0 0 0 
0 0 0 0 0 0 0 0 0 
0 0 0 0 0 0 0 0 0 
0 0 0 0 0 0 0 0 0 
0 0 0 0 0 0 0 0 0 
0 0 0 0 0 0 0 0 0 
0 0 0 0 0 0 0 0 0 
0 0 0 0 0 0 0 0 0 
0 0 0 0 0 0 0 0 0 
0 0 0 0 0 0 0 0 0 
0 0 0 0 0 0 0 0 0 
0 0 0 0 0 0 0 0 0 
0 0 0 0 0 0 0 0 0 
0 0 0 0 0 0 0 0 0 
0 0 0 0 0 0 0 0 0 
0 0 0 0 0 0 0 0 0 
0 0 0 0 0 0 0 0 0 
0 0 0 0 0 0 0 0 1.14504e-11 
0 0 0 0 0 0 0 0 0 
0 0 0 0 0 0 0 0 0 
0 0 0 0 0 0 0 0 0 
0 0 0 0 0 0 0 0 0 
0 0 0 0 0 0 0 0 0 
0 0 0 0 0 0 0 0 0 
0 0 0 0 0 0 0 0 0 
0 0 0 0 0 0 0 0 0 
0 0 0 0 0 0 0 0 0 
0 0 0 0 0 0 0 0 0 
0 0 0 0 0 0 0 0 0 
0 0 0 0 0 0 0 0 0 
0 0 0 0 0 0 0 0 0 
0 0 0 0 0 0 0 0 0 
0 0 0 0 0 0 0 0 0 
0 0 0 0 0 0 0 0 0 
0 0 0 0 0 0 0 0 0 
0 0 0 0 0 0 0 0 0 
0 0 0 0 0 0 0 0 0 
0 0 0 0 0 1.49157e-11 0 0 0 
0 0 0 0 0 0 0 0 0 
0 1.92024e-11 0 0 0 0 0 0 0 
0 0 0 0 0 0 0 0 0 
0 0 0 0 8.93804e-12 0 0 0 0 
0 0 0 0 0 0 0 0 0 
0 0 0 0 0 0 0 0 0 
0 0 0 0 0 0 0 0 0 
0 0 0 0 0 0 0 0 0 
0 0 0 0 0 0 0 0 0 
0 0 0 0 0 0 0 0 0 
0 0 0 0 0 0 0 0 0 
0 0 0 0 0 0 0 0 0 
0 0 0 0 0 0 0 0 0 
0 0 0 0 0 0 0 0 0 
0 0 0 0 0 0 0 0 0 
0 0 0 0 0 0 0 0 0 
0 0 0 0 0 0 0 0 0 
0 0 0 0 0 0 0 0 0 
0 0 0 0 0 0 0 0 0 
0 0 0 0 0 0 0 0 0 
0 0 0 0 0 0 0 0 0 
0 0 0 0 0 0 0 0 0 
0 0 0 0 0 0 0 5.44138e-12 0 
0 0 0 0 0 0 0 0 6.5377e-12 
0 0 0 0 0 0 0 0 0 
0 0 3.53283e-12 0 0 0 0 0 0 
0 0 0 0 0 0 0 0 0 
0 0 0 0 0 0 0 0 0 
0 0 0 0 0 0 0 0 0 
0 0 0 0 0 0 0 0 0 
0 0 0 0 0 1.919e-11 0 0 0 
0 0 0 0 0 0 0 0 0 
0 0 0 0 0 0 0 0 0 
0 0 0 0 0 0 0 0 0 
0 0 0 0 0 0 0 0 0 
0 0 0 0 0 0 0 0 0 
0 0 0 0 0 0 0 0 0 
0 0 3.19945e-12 0 0 0 0 0 0 
0 0 0 0 0 0 0 3.8984e-12 0 
0 0 0 0 0 0 0 0 0 
0 0 0 0 0 0 0 0 0 
0 0 0 0 0 0 0 0 0 
1.28579e-13 0 0 0 0 0 0 0 0 
0 0 0 0 0 0 0 0 0 
0 0 0 0 0 0 0 0 0 
0 0 0 0 0 0 0 0 0 
0 0 0 0 0 0 0 0 0 
0 0 0 0 0 0 0 0 0 
0 0 0 0 0 0 0 0 0 
0 0 0 0 0 0 0 0 0 
0 0 0 0 0 0 0 0 0 
3.08357e-12 0 0 0 0 0 0 0 0 
0 0 0 0 0 1.21058e-11 0 0 0 
0 0 0 0 0 0 0 0 0 
0 0 0 0 0 1.7409e-11 0 0 0 
0 0 0 0 0 0 0 0 0 
0 0 0 0 0 0 2.8622e-11 0 0 
1.66513e-11 0 0 0 0 0 0 0 0 
3.11705e-11 0 0 0 0 0 0 0 0 
0 1.87936e-11 0 0 0 0 0 0 0 
0 0 0 0 0 0 0 0 0 
0 0 0 0 0 0 0 0 0 
0 0 0 0 0 0 1.27942e-11 0 0 
0 0 0 0 0 0 0 0 0 
0 0 0 0 0 0 0 0 0 
0 0 0 0 0 0 0 0 0 
0 0 0 0 0 0 0 0 0 
0 0 0 0 0 0 0 0 0 
0 0 0 0 0 0 0 0 0 
0 0 0 0 0 0 0 0 0 
0 0 0 0 0 0 0 0 0 
0 0 0 0 0 0 0 0 0 
0 0 0 0 0 0 0 0 0 
0 0 0 0 0 0 0 0 0 
0 0 0 0 0 0 0 0 0 
0 0 0 0 0 0 0 0 0 
0 0 0 0 0 0 0 0 0 
0 0 0 0 0 0 0 4.64506e-12 0 
0 0 0 0 0 0 0 0 0 
0 0 1.47294e-11 0 0 0 0 0 0 
0 0 1.56326e-11 1.09782e-11 0 0 0 0 0 
0 0 0 0 0 0 0 0 0 
0 0 0 0 0 0 0 0 2.11312e-12 
0 0 1.36567e-11 0 0 0 0 0 0 
0 0 0 0 0 0 0 0 0 
0 0 0 0 0 0 0 0 0 
0 0 0 0 0 0 0 0 0 
0 2.37841e-11 0 0 0 0 0 0 0 
1.06225e-11 0 0 0 0 0 4.82454e-12 0 0 
0 0 1.32559e-11 0 0 0 0 0 0 
0 0 0 0 0 0 0 1.25882e-11 0 
0 0 0 0 0 0 1.43538e-11 0 0 
0 0 0 0 0 0 0 0 0 
0 0 0 0 0 0 5.31009e-12 0 0 
0 0 0 0 0 0 0 0 0 
0 0 0 0 0 0 0 0 0 
0 0 0 0 0 0 0 0 0 
0 0 0 0 0 0 0 0 0 
0 0 0 1.1822e-11 0 0 0 0 0 
0 0 0 0 0 0 0 0 0 
0 0 0 0 0 0 0 0 0 
0 0 0 0 0 0 0 0 0 
0 0 0 0 0 0 0 0 0 
0 0 0 0 0 0 0 0 0 
0 0 0 0 0 0 0 0 0 
0 0 0 0 0 0 0 0 0 
0 0 0 0 0 0 0 0 0 
0 0 0 0 2.45585e-11 0 0 0 0 
0 0 0 0 0 0 0 0 0 
0 0 0 1.44769e-11 0 0 0 0 0 
3.91107e-11 0 0 0 0 0 0 1.93385e-12 0 
0 0 0 0 0 0 0 0 0 
0 2.75429e-11 0 0 0 0 0 0 0 
0 0 0 0 0 0 0 0 0 
0 0 0 0 0 0 0 0 0 
3.91629e-11 0 0 0 0 1.81024e-11 0 0 0 
0 0 0 0 0 0 1.38499e-11 0 0 
0 0 0 0 0 0 0 0 0 
3.20841e-11 0 0 0 0 3.67898e-11 0 0 0 
0 0 0 0 0 2.07543e-11 0 0 0 
0 0 0 0 0 0 1.19151e-11 0 0 
0 0 0 0 0 0 0 0 0 
0 0 0 0 0 0 0 0 0 
0 0 0 1.51176e-12 0 0 0 0 0 
0 0 0 0 0 0 0 0 0 
0 0 0 0 0 0 0 0 0 
0 0 0 0 0 0 0 0 0 
7.97553e-12 0 0 0 0 0 0 0 0 
0 0 0 0 0 0 0 0 0 
0 0 0 0 0 0 0 0 0 
0 0 0 0 0 0 0 0 0 
0 0 0 0 0 0 0 0 0 
0 0 0 0 0 0 0 6.74083e-12 0 
0 0 0 0 0 0 0 0 0 
0 0 0 0 0 0 1.42096e-11 0 0 
2.70444e-11 0 0 0 0 0 0 0 0 
0 0 0 0 0 1.70456e-11 0 0 0 
0 0 0 0 1.97196e-11 0 2.60708e-11 0 0 
0 0 0 0 0 3.96774e-11 0 0 0 
0 0 0 0 0 0 0 0 0 
0 0 0 2.11818e-11 7.57363e-11 0 0 3.515e-11 0 
4.77627e-11 0 0 0 0 0 0 0 0 
0 0 0 0 0 0 0 0 0 
0 0 0 0 0 0 0 0 0 
0 0 0 0 0 0 0 0 0 
0 0 0 0 0 0 0 0 0 
0 0 0 6.1824e-11 2.10434e-11 0 0 0 0 
0 0 0 0 5.34143e-12 0 0 0 0 
0 0 0 0 0 0 0 0 0 
0 0 1.26863e-11 0 0 0 0 0 0 
0 0 0 0 0 0 0 0 0 
0 0 0 0 0 0 0 0 0 
0 0 0 0 0 0 0 0 0 
0 0 0 0 0 0 0 0 3.31781e-11 
0 0 0 0 0 0 0 0 0 
0 0 0 0 0 1.98817e-12 0 0 0 
0 0 0 0 0 0 0 0 0 
0 0 0 0 0 0 0 0 0 
0 0 0 0 0 0 0 0 0 
0 0 0 0 0 0 0 0 0 
0 0 0 0 0 0 0 0 0 
0 0 0 0 0 0 0 0 0 
0 0 0 0 0 0 0 0 0 
0 0 0 0 5.74141e-11 0 0 0 0 
0 0 0 0 0 0 0 0 0 
0 0 0 2.61072e-11 0 0 0 0 0 
0 0 0 0 2.44644e-11 0 0 0 0 
0 0 0 0 3.62633e-12 0 0 0 0 
0 2.8748e-12 6.17236e-11 1.07018e-10 0 0 0 0 0 
0 0 0 0 0 0 0 0 0 
4.56012e-11 4.75729e-11 0 0 6.23101e-11 0 0 0 0 
3.45928e-11 0 0 0 0 0 0 0 0 
0 0 0 0 0 0 0 0 0 
0 0 0 0 0 0 5.85336e-11 0 0 
0 0 0 0 4.82914e-11 0 0 1.2749e-11 0 
8.72036e-12 0 0 0 0 0 0 0 0 
0 0 0 0 0 0 0 0 0 
0 0 0 0 0 0 0 0 0 
0 2.42264e-11 0 0 0 0 0 0 0 
0 0 0 0 0 0 0 0 0 
0 0 0 0 0 0 0 0 0 
0 1.72523e-11 0 0 4.92118e-12 0 0 0 0 
0 0 0 0 0 0 0 0 0 
0 0 0 0 0 0 0 0 0 
0 0 0 0 0 0 0 0 0 
0 0 0 0 0 0 0 0 0 
0 0 0 0 0 0 0 0 0 
0 0 0 0 0 0 0 0 0 
0 0 0 0 0 0 0 0 0 
0 0 0 0 0 1.51929e-11 0 0 0 
0 3.96829e-12 0 0 9.75228e-12 0 0 0 0 
0 0 4.22593e-11 3.72805e-12 0 0 0 5.28708e-11 0 
0 0 0 0 0 2.2948e-11 0 0 0 
0 0 0 0 0 0 2.13108e-10 0 0 
0 0 0 3.91281e-11 0 0 0 2.61251e-11 0 
0 0 0 0 0 0 0 0 0 
0 0 0 0 0 1.31645e-11 8.22522e-11 0 0 
0 0 0 0 7.5234e-11 6.3279e-11 0 5.48538e-11 0 
0 0 0 0 0 2.38212e-11 0 0 2.73235e-11 
3.02698e-11 0 0 0 0 0 2.59064e-11 0 0 
0 0 0 0 0 0 0 0 0 
0 0 0 0 9.27922e-11 0 1.44616e-10 9.07685e-11 1.41749e-10 
0 3.67213e-11 0 0 0 0 0 0 0 
5.91139e-11 0 4.39897e-11 0 0 0 5.01665e-12 0 0 
0 0 0 0 1.57861e-11 0 0 0 0 
0 0 1.94826e-11 0 0 0 0 0 0 
0 0 0 0 0 0 0 0 0 
0 0 0 0 0 0 0 0 0 
0 0 0 0 0 0 0 0 0 
0 0 2.17576e-11 0 0 0 0 3.47911e-11 0 
0 1.19459e-12 0 0 0 0 0 0 0 
0 0 0 0 0 0 0 0 0 
0 0 0 0 0 0 0 0 0 
0 0 0 0 0 0 0 0 0 
0 0 0 0 0 0 0 0 0 
0 0 0 0 0 0 0 0 0 
0 0 0 0 0 0 0 0 0 
0 5.79202e-11 0 0 0 1.30975e-11 0 0 0 
0 0 0 0 0 4.01606e-11 0 0 0 
0 2.4714e-10 0 0 6.05175e-11 0 0 0 0 
0 0 0 2.16053e-11 0 0 0 0 0 
0 0 0 2.07294e-10 2.423e-08 0 0 0 0 
0 0 0 0 0 0 0 0 0 
0 0 0 0 2.45937e-10 0 0 0 0 
0 0 0 0 0 0 0 0 5.95998e-11 
0 0 0 0 0 0 0 0 0 
0 0 0 0 0 0 0 0 3.57303e-11 
0 0 0 0 0 0 0 0 0 
0 0 5.10028e-11 0 0 0 0 0 0 
0 0 6.51263e-11 0 0 0 0 0 0 
1.2803e-10 0 0 0 0 9.23723e-11 5.23064e-11 0 0 
0 0 0 0 0 0 0 0 0 
0 2.48445e-11 0 0 0 0 0 0 0 
0 0 0 0 0 0 0 0 0 
0 0 0 0 0 0 0 0 0 
0 0 0 0 0 0 0 0 0 
0 0 0 0 0 0 0 0 0 
0 0 0 6.76846e-11 0 0 0 0 0 
0 0 0 0 0 0 0 0 0 
0 0 0 0 0 0 0 0 0 
0 0 0 0 0 0 0 0 0 
0 0 0 0 0 0 0 0 0 
0 0 0 0 0 0 0 0 0 
0 0 0 0 0 0 0 0 0 
0 0 0 0 1.9813e-11 1.14916e-11 0 0 0 
0 0 0 4.77488e-11 0 0 2.41795e-11 0 0 
0 8.43807e-12 0 0 0 0 0 0 0 
0 0 0 0 0 0 0 0 0 
0 1.40112e-11 0 0 0 0 4.69562e-11 0 0 
0 0 0 0 0 0 4.67586e-11 0 1.8864e-11 
0 0 0 0 0 0 0 2.05855e-11 0 
3.16921e-11 1.38617e-10 2.53287e-08 0 0 3.18379e-12 0 0 0 
0 0 0 0 2.63011e-08 0 0 1.27551e-10 0 
0 0 5.44879e-11 0 0 1.03524e-10 1.44758e-10 0 0 
0 0 0 5.25612e-11 3.05312e-11 1.11869e-11 0 0 0 
0 0 0 0 0 2.09307e-11 0 0 0 
1.26684e-11 0 1.12831e-10 5.79335e-11 0 0 0 0 0 
0 0 0 2.50829e-08 0 0 0 2.95743e-11 1.57845e-10 
8.91602e-11 0 0 1.89203e-10 0 0 0 6.54964e-11 7.60883e-11 
0 0 3.38564e-11 0 0 3.34942e-11 0 0 0 
0 4.1685e-11 0 0 0 0 0 0 0 
0 0 0 0 0 0 0 3.26885e-11 0 
0 0 0 0 0 0 0 0 0 
0 0 0 0 0 0 0 0 0 
0 0 0 0 0 1.19587e-12 0 0 0 
0 0 0 0 0 0 0 0 0 
0 0 1.55831e-11 0 0 0 0 0 0 
0 0 0 0 0 0 0 0 0 
0 0 0 0 0 0 0 0 0 
0 0 0 0 0 0 0 0 0 
0 0 0 0 0 0 0 0 0 
0 0 0 0 0 0 0 0 0 
0 0 0 0 0 8.00501e-11 8.87094e-11 0 0 
0 0 0 0 0 0 0 0 0 
0 1.58162e-10 0 0 0 0 0 0 0 
0 0 0 0 0 0 4.11682e-11 0 0 
0 0 0 0 0 0 8.46627e-11 8.46764e-11 0 
0 0 1.04978e-10 8.11043e-11 0 0 2.16877e-11 0 0 
0 0 0 0 0 4.18526e-11 0 0 0 
1.36137e-10 0 0 0 1.49301e-10 0 0 0 0 
0 0 1.77189e-10 0 0 0 0 0 6.29071e-11 
2.60089e-11 0 7.91981e-11 0 0 0 2.4538e-08 2.30526e-10 0 
3.59467e-11 0 0 0 0 1.83557e-11 2.03651e-11 0 0 
0 0 4.22231e-11 0 0 9.02353e-11 0 0 0 
1.04586e-10 0 0 0 0 0 0 0 1.41297e-10 
0 0 0 3.50717e-11 0 1.71752e-10 0 0 0 
1.1002e-10 0 0 0 5.23117e-11 6.50406e-11 0 6.83141e-12 0 
0 0 0 3.25139e-11 0 0 0 0 0 
0 0 0 7.22346e-11 0 0 0 8.62571e-11 0 
0 0 5.64067e-11 0 0 0 0 0 0 
0 0 0 0 0 0 0 0 0 
0 0 0 0 0 0 0 0 0 
0 0 1.88911e-11 9.21957e-11 2.01442e-11 0 0 0 0 
0 6.16574e-11 0 3.81063e-11 3.17053e-11 0 0 1.93561e-12 0 
0 0 0 0 0 0 0 0 0 
0 0 0 0 0 0 0 0 0 
0 0 0 0 0 0 0 0 0 
0 0 0 0 0 0 0 0 0 
0 0 0 0 0 0 0 0 0 
0 0 0 0 0 0 0 0 0 
0 0 0 5.92835e-11 0 7.16906e-11 0 0 0 
0 0 0 4.22803e-11 0 0 0 0 0 
0 2.61705e-08 0 2.5011e-10 0 0 0 0 0 
0 1.23534e-10 0 0 0 0 0 0 0 
2.14713e-11 0 0 0 0 2.79841e-11 6.62707e-11 0 0 
0 3.79316e-11 0 0 0 0 0 0 0 
0 0 0 2.53983e-11 0 0 5.18928e-11 0 0 
3.44695e-11 0 0 3.02015e-11 0 0 0 0 0 
0 0 0 0 0 0 5.35106e-11 0 0 
0 1.23523e-10 0 0 0 0 3.73625e-10 0 0 
0 0 0 0 0 0 0 1.43833e-11 0 
0 0 0 8.58342e-11 0 2.2674e-10 0 0 6.3678e-11 
0 0 0 4.84815e-11 5.33595e-11 2.77887e-11 0 0 0 
0 0 0 0 0 0 2.71547e-08 2.76207e-10 0 
0 0 1.17743e-10 0 0 9.34166e-11 0 0 0 
1.16072e-11 0 0 0 0 0 0 0 0 
0 0 1.24984e-10 0 0 0 0 4.60187e-11 6.66278e-11 
0 0 0 0 0 1.05581e-11 0 0 0 
0 0 0 0 0 0 0 0 0 
0 0 0 0 3.80427e-11 0 0 0 0 
0 0 7.84596e-11 0 0 0 0 0 0 
0 0 0 0 0 0 0 0 0 
0 0 1.01576e-11 0 0 5.72458e-12 0 0 0 
0 0 0 0 0 0 0 0 0 
0 0 0 0 0 0 0 0 0 
0 0 0 0 0 0 0 0 0 
0 0 0 0 0 0 0 0 0 
0 0 0 0 0 0 0 3.71598e-11 0 
0 6.6852e-11 0 0 2.46167e-08 0 0 0 0 
4.24324e-11 0 0 0 0 0 0 0 0 
3.6187e-10 0 0 0 0 2.50768e-11 1.40727e-10 0 0 
1.56539e-10 0 0 0 8.45572e-11 0 0 0 0 
0 0 3.79104e-11 1.24921e-11 0 0 3.99995e-11 0 0 
0 0 0 0 0 3.10275e-11 0 0 0 
0 0 1.24881e-10 0 0 2.52676e-10 0 0 0 
0 0 6.89114e-11 1.00262e-10 0 0 1.61818e-10 0 0 
4.82382e-11 0 0 2.42048e-12 0 0 1.05084e-10 9.93842e-11 0 
1.48409e-10 0 1.58961e-10 0 0 0 0 5.97808e-11 0 
0 0 1.98075e-11 0 0 0 0 0 0 
4.49466e-11 0 0 2.43598e-08 1.63684e-10 0 1.05711e-10 0 0 
0 0 0 0 0 1.01189e-10 0 0 0 
0 0 0 0 0 1.88408e-10 0 0 2.04369e-10 
0 0 0 0 0 0 7.76004e-11 0 3.65399e-11 
0 0 0 0 1.00521e-11 0 0 0 1.25881e-10 
0 0 0 6.8551e-11 1.59885e-10 0 0 0 0 
0 0 0 0 0 0 0 0 0 
0 0 0 0 0 0 0 0 5.63317e-12 
0 0 0 0 0 0 1.22228e-10 0 0 
0 0 0 2.48198e-08 0 0 0 0 7.53591e-11 
0 0 0 0 0 0 0 0 0 
0 7.51218e-12 0 0 0 0 0 0 0 
0 0 0 0 0 0 0 0 0 
0 0 0 0 0 0 0 0 0 
0 0 0 0 0 0 0 0 0 
0 0 0 0 0 0 0 0 0 
0 0 0 0 0 0 0 0 3.58966e-12 
0 0 8.73245e-11 1.17173e-10 3.68766e-11 0 0 0 0 
0 0 0 0 0 0 0 0 0 
2.2919e-10 0 0 7.03929e-12 0 1.12167e-10 1.45702e-10 4.75318e-11 0 
0 0 0 0 0 0 0 0 0 
0 0 0 0 0 0 0 6.97129e-11 0 
0 0 0 0 3.15373e-11 0 0 1.83781e-11 0 
6.55608e-11 0 0 0 1.57931e-10 0 4.70233e-11 0 0 
2.98226e-10 0 0 3.14467e-10 0 0 0 0 0 
0 0 0 0 0 6.23071e-11 0 0 2.34953e-10 
0 0 0 0 5.14208e-11 0 0 0 0 
0 0 0 0 0 0 0 0 0 
0 0 0 0 1.00362e-10 0 0 0 0 
7.17963e-11 0 0 3.09117e-11 0 0 8.84042e-12 0 1.0763e-10 
0 0 0 0 0 2.85898e-10 2.69557e-08 0 0 
0 0 0 0 0 5.93458e-11 0 0 0 
0 0 0 0 7.70757e-11 0 1.70225e-10 8.7648e-11 0 
0 0 0 0 0 5.2022e-11 1.86151e-10 0 0 
0 0 1.38059e-11 0 0 0 0 0 0 
0 0 0 0 0 0 0 0 0 
0 0 0 0 5.39715e-11 0 0 2.27918e-11 3.29855e-11 
0 0 0 0 3.09662e-11 0 0 6.65107e-11 4.64697e-11 
0 0 0 0 0 0 0 0 0 
0 0 0 0 0 0 0 0 0 
0 0 0 0 0 0 0 0 0 
0 0 0 0 0 0 0 0 0 
0 0 0 0 0 0 0 0 0 
0 0 0 0 0 0 0 0 0 
0 0 0 0 0 0 7.25318e-11 1.57101e-11 0 
1.13385e-10 0 3.68462e-11 0 0 0 6.8276e-12 0 2.05052e-10 
0 0 0 1.78615e-11 0 2.74616e-10 0 0 2.22442e-10 
0 0 0 0 2.66426e-08 0 0 4.54112e-11 0 
0 0 0 0 0 0 6.22603e-12 0 0 
0 0 0 0 0 0 0 0 0 
0 0 4.01412e-12 0 0 6.11891e-11 7.05991e-11 0 0 
0 5.18988e-12 0 0 0 0 0 0 0 
0 0 0 0 0 0 0 0 0 
0 1.88497e-11 1.86293e-10 1.08864e-10 0 0 1.77454e-11 0 0 
0 0 0 0 0 0 0 0 0 
0 0 0 9.82397e-11 0 0 0 0 3.16911e-11 
0 0 1.4522e-10 0 0 1.0953e-11 0 0 0 
0 8.69281e-11 0 0 0 0 0 1.19271e-10 0 
0 0 0 2.41004e-10 0 0 0 0 0 
0 0 0 0 0 0 0 0 0 
0 0 0 0 0 2.22125e-10 2.68746e-08 0 0 
0 0 0 4.76468e-11 6.47577e-11 1.01319e-10 0 0 0 
0 0 0 0 0 0 0 0 0 
0 0 2.01132e-11 2.5674e-11 0 0 0 0 0 
0 0 0 4.34174e-11 0 1.41966e-10 4.24364e-11 0 0 
0 1.99266e-10 0 0 0 0 0 0 0 
0 0 0 0 0 0 0 0 0 
0 4.57557e-12 0 0 0 0 0 0 0 
0 0 0 0 0 0 0 0 0 
0 0 0 0 0 0 0 0 0 
0 0 0 0 0 0 0 0 0 
0 0 0 0 0 0 0 0 0 
0 0 0 1.39795e-11 0 5.38268e-11 0 0 0 
0 0 0 0 0 0 0 0 0 
0 1.41664e-10 0 0 0 0 0 0 0 
0 6.50573e-11 2.58323e-10 0 0 0 0 0 0 
4.30155e-11 0 0 0 0 0 0 0 0 
0 1.20339e-11 0 0 0 0 3.06357e-11 0 0 
0 0 0 6.98598e-11 7.58896e-11 0 0 0 0 
1.78307e-10 0 0 3.0078e-08 0 0 0 3.45456e-08 0 
0 0 0 0 0 1.1014e-10 0 0 1.75378e-10 
2.22661e-11 2.23192e-11 7.80679e-11 0 0 4.43185e-11 0 0 0 
5.78543e-11 0 0 0 0 0 0 0 0 
0 3.06235e-11 0 0 0 0 0 0 0 
2.66209e-11 0 0 0 0 0 0 0 5.86744e-11 
0 0 0 1.7679e-11 0 0 0 5.31714e-11 0 
7.97491e-11 0 0 0 0 0 0 9.11184e-11 4.64673e-11 
0 1.57205e-11 0 0 0 0 1.58422e-10 1.23485e-10 0 
0 0 0 0 0 0 0 0 0 
0 0 0 0 0 7.22802e-11 5.97759e-11 0 0 
0 0 0 0 0 0 0 0 0 
0 3.40219e-11 0 6.20175e-11 0 0 9.83799e-11 0 0 
0 0 9.75564e-11 0 0 0 0 0 0 
0 0 4.93151e-11 7.32522e-11 2.45633e-11 1.06041e-10 0 4.93243e-11 1.45025e-10 
0 0 0 0 0 0 0 0 0 
0 0 0 0 0 0 0 0 0 
0 0 0 0 0 0 0 0 0 
0 0 0 0 0 0 0 0 0 
0 0 0 0 0 0 0 0 0 
0 0 0 0 0 0 0 0 0 
0 4.09479e-11 0 9.27911e-11 0 6.80279e-11 0 0 0 
0 0 0 1.16507e-10 3.97011e-11 0 0 9.96189e-11 0 
0 0 0 0 0 0 2.08484e-10 0 0 
0 0 0 0 0 1.01425e-11 0 0 0 
0 0 0 0 0 0 1.03285e-10 0 0 
0 0 8.16276e-11 0 0 0 0 0 0 
0 0 0 0 0 0 0 1.91025e-10 0 
0 0 0 0 0 0 0 0 0 
0 0 0 0 2.61371e-08 0 0 0 0 
0 0 0 0 0 0 0 0 0 
0 5.91925e-11 0 0 0 0 0 0 1.34034e-11 
0 0 0 0 1.61301e-11 0 0 0 6.28837e-11 
0 0 0 0 1.38872e-10 0 0 0 0 
0 0 0 0 0 0 1.07272e-10 2.10146e-11 9.0425e-11 
6.75625e-11 9.70524e-11 0 0 0 0 1.24906e-10 0 0 
0 2.48381e-08 0 0 0 0 4.40522e-11 0 0 
0 1.9777e-10 0 0 0 0 2.81917e-08 0 0 
6.87866e-11 0 0 0 0 3.32873e-11 0 0 0 
0 0 0 0 0 0 0 0 0 
0 4.33642e-11 0 0 0 1.06109e-10 6.11807e-11 0 3.28647e-11 
0 0 0 0 0 0 0 0 0 
0 0 0 0 0 0 1.23402e-10 0 8.09745e-11 
4.56554e-11 0 0 0 0 0 0 0 0 
0 0 0 0 0 0 0 0 0 
0 0 0 0 0 0 0 0 0 
0 0 0 0 0 0 0 0 0 
0 0 0 0 0 0 0 0 0 
0 0 0 0 0 0 0 0 0 
0 6.57637e-11 0 0 0 0 0 9.58098e-11 0 
4.03292e-10 0 1.51165e-10 0 3.10003e-11 7.36008e-11 0 0 0 
0 3.83206e-08 3.85147e-08 0 0 0 0 0 0 
0 0 0 1.28885e-11 0 0 0 0 0 
0 0 0 0 0 4.24292e-11 0 0 0 
0 0 0 0 0 0 0 0 0 
0 0 0 0 1.01883e-11 0 0 0 0 
0 0 0 0 3.31204e-08 0 0 2.19528e-10 0 
2.69708e-10 0 2.76806e-10 0 0 1.21834e-11 0 0 1.11856e-11 
0 0 0 0 0 0 0 0 0 
0 0 0 0 0 0 0 0 0 
0 7.39336e-11 0 0 0 0 0 0 0 
0 0 0 0 0 0 0 0 0 
0 0 0 1.13834e-10 0 0 0 1.73185e-10 0 
0 0 0 0 0 0 0 0 0 
0 0 0 0 1.04667e-10 5.25836e-11 0 2.18921e-10 0 
0 0 0 0 9.00396e-11 0 0 0 3.17061e-11 
1.89541e-11 0 0 0 0 0 0 0 0 
0 0 0 0 0 3.00623e-11 0 0 2.06635e-11 
0 0 0 0 2.70465e-10 0 0 1.39662e-10 0 
3.78175e-11 1.3409e-10 0 0 0 1.08304e-10 2.32372e-10 0 0 
0 0 0 0 0 0 0 0 0 
0 0 0 0 0 0 0 0 0 
0 0 0 0 0 0 0 0 0 
0 0 0 0 0 0 0 0 0 
0 0 0 0 0 0 0 0 0 
0 0 0 0 0 0 0 0 0 
0 0 0 0 0 0 0 0 0 
0 0 6.55335e-11 0 0 0 0 0 0 
0 1.51105e-11 0 0 0 0 8.33359e-11 0 0 
0 0 2.44322e-10 2.44218e-10 0 9.21244e-11 0 0 0 
0 0 3.85866e-11 0 0 0 0 0 0 
0 0 0 8.89799e-11 1.5979e-11 1.19283e-10 0 0 0 
0 0 8.20061e-11 0 0 0 0 0 0 
0 0 0 0 0 0 0 0 0 
0 5.02032e-10 0 0 0 7.20216e-11 0 0 0 
0 0 0 0 0 0 7.35475e-11 0 0 
0 0 0 0 5.17332e-11 0 0 4.93475e-11 0 
0 0 0 0 0 3.13965e-11 0 0 0 
0 0 0 0 1.26992e-11 0 0 0 0 
0 0 0 0 0 0 0 0 0 
0 3.32339e-11 4.84382e-11 0 0 0 0 0 0 
3.76127e-11 0 0 9.31341e-11 0 0 0 0 0 
0 0 0 0 0 0 0 5.53699e-11 0 
5.47858e-11 0 0 2.18506e-10 0 0 0 3.97825e-11 0 
0 0 0 0 0 0 0 0 0 
0 0 0 0 0 0 0 0 0 
2.00141e-10 1.6988e-10 2.66708e-08 0 0 1.93752e-10 0 0 0 
0 0 5.73561e-11 0 0 0 0 0 0 
0 1.35908e-10 0 0 0 0 0 0 0 
0 0 0 0 0 0 0 0 0 
0 0 0 0 0 0 0 0 0 
0 0 0 0 0 0 0 0 0 
0 0 0 0 0 0 0 0 0 
0 0 0 0 0 0 0 0 0 
0 0 0 0 0 0 0 4.70053e-11 0 
0 2.91047e-11 0 0 0 2.66656e-08 0 3.97074e-10 1.23688e-10 
0 0 0 0 2.81954e-10 3.0753e-10 0 0 0 
5.0123e-11 2.02449e-10 0 0 1.17034e-10 1.25207e-10 0 0 0 
0 0 0 0 0 0 0 0 0 
0 0 0 4.23542e-11 1.03821e-10 1.01172e-10 0 3.15855e-10 0 
0 1.97261e-11 0 0 0 0 6.2501e-11 0 0 
0 0 0 1.04338e-10 2.17959e-11 0 4.02948e-11 0 0 
0 0 0 0 1.06306e-10 0 1.78708e-11 6.70569e-11 9.84253e-12 
9.93132e-11 0 0 1.85777e-11 5.79541e-12 0 0 5.50994e-11 0 
0 0 0 0 0 0 0 0 0 
0 0 0 0 3.23956e-11 0 0 0 0 
0 0 0 0 0 0 0 0 0 
0 0 0 0 0 0 0 0 4.9193e-12 
0 0 1.23971e-10 2.29646e-10 0 0 0 0 0 
0 0 0 8.19987e-11 0 5.55899e-11 2.01895e-11 0 1.82314e-11 
3.32918e-11 0 0 0 0 0 0 0 1.96282e-10 
2.85274e-10 0 0 0 1.02532e-10 0 0 0 0 
1.15888e-11 0 0 0 0 0 0 0 0 
0 0 0 0 0 0 0 0 0 
1.13907e-10 9.18178e-11 0 0 0 0 0 0 0 
0 0 0 3.07726e-11 4.23726e-11 1.14074e-10 0 3.09404e-08 0 
0 0 0 0 0 1.50488e-12 0 0 0 
0 0 0 0 0 0 0 0 0 
0 0 0 0 0 0 0 0 0 
0 0 0 0 0 0 0 0 0 
0 0 0 0 0 0 0 0 0 
0 0 0 0 0 0 0 0 0 
0 0 0 0 0 0 0 2.54625e-10 0 
0 0 0 0 2.93288e-10 1.62747e-10 0 0 0 
0 0 0 1.94279e-10 0 0 0 0 0 
3.97402e-11 3.89873e-12 0 0 0 0 0 0 0 
0 0 0 0 0 0 0 0 0 
0 1.27788e-10 0 0 0 0 6.12118e-11 0 0 
0 0 0 5.3979e-11 0 3.89705e-11 0 0 0 
0 0 0 0 0 5.23544e-11 0 2.41749e-11 2.07678e-10 
0 0 0 0 0 0 0 0 0 
0 0 0 0 0 0 0 0 0 
0 5.78818e-11 0 0 0 0 0 0 2.35107e-11 
1.01013e-11 0 6.20867e-11 0 0 0 0 0 0 
1.23965e-10 0 0 0 0 0 0 0 9.53475e-11 
0 0 0 0 0 0 0 0 0 
0 0 0 0 0 0 4.2779e-11 8.29153e-11 0 
0 1.08163e-10 0 0 0 0 0 0 0 
1.03819e-10 0 0 0 0 0 0 0 0 
0 2.63623e-08 0 3.00971e-11 0 0 0 5.19995e-11 0 
0 0 0 0 0 0 0 0 0 
0 0 0 0 1.22678e-10 0 0 0 3.37622e-10 
0 0 0 1.48609e-10 0 2.02282e-10 1.92105e-10 0 0 
0 0 0 0 0 0 0 0 0 
0 0 3.69291e-11 0 0 0 0 0 0 
0 0 0 0 0 0 0 0 0 
0 0 0 0 0 0 0 0 0 
0 0 0 0 0 0 0 0 0 
0 0 0 0 0 0 0 0 0 
0 0 0 0 0 0 0 0 0 
0 0 0 0 0 0 1.34173e-10 0 0 
0 0 7.91032e-11 0 0 0 0 0 0 
0 0 0 0 0 0 0 0 0 
0 0 0 7.59656e-11 0 0 0 2.52576e-11 0 
0 0 0 0 0 0 0 0 0 
0 0 2.7249e-10 2.70009e-08 0 0 0 0 0 
0 0 0 0 0 0 0 5.49093e-11 0 
0 0 0 0 0 0 0 0 0 
0 0 0 0 0 0 0 0 0 
0 1.14132e-10 0 0 0 0 2.63727e-08 0 1.72533e-10 
0 0 0 0 0 0 4.76687e-11 0 0 
0 0 0 0 0 0 0 0 2.71101e-10 
9.75091e-11 0 0 2.72674e-08 0 0 0 0 0 
2.05523e-11 0 0 0 0 3.86592e-11 0 0 5.86893e-11 
0 0 0 0 0 0 1.04105e-10 0 0 
0 0 8.44007e-11 0 0 0 0 1.45586e-10 0 
0 0 0 0 1.4343e-10 0 0 0 0 
0 0 0 2.05733e-11 0 0 0 0 0 
0 0 0 0 2.1859e-11 0 0 2.35879e-12 0 
0 0 8.52616e-11 1.17911e-10 0 0 3.46838e-11 0 0 
0 0 0 0 0 0 0 0 0 
0 0 3.21009e-08 0 2.10595e-10 0 1.33894e-10 9.64551e-11 0 
0 0 0 0 0 0 0 0 0 
0 0 0 0 0 0 0 0 0 
0 0 0 0 0 0 0 0 0 
0 0 0 0 0 0 0 0 0 
0 0 0 0 0 0 0 0 0 
0 0 0 0 0 0 0 0 0 
4.77124e-11 8.48273e-11 0 0 0 0 0 0 0 
1.85602e-10 0 0 0 0 0 0 0 0 
0 1.36667e-10 2.00529e-10 1.79801e-10 0 0 0 0 0 
0 0 0 0 1.40833e-11 0 0 0 3.31153e-11 
0 0 0 0 2.56887e-08 0 0 1.84772e-10 0 
0 0 0 1.91621e-10 0 0 0 0 0 
0 0 0 0 2.6861e-08 0 0 0 0 
0 0 1.41514e-10 0 0 0 0 0 0 
0 0 0 0 0 0 0 0 0 
1.94732e-11 2.1596e-10 0 0 0 0 0 0 0 
0 0 0 0 0 0 0 0 0 
0 0 0 0 0 0 0 0 0 
0 0 0 0 0 0 0 0 0 
0 0 1.22579e-10 0 2.52665e-11 2.19168e-10 0 0 2.58413e-08 
0 0 0 0 0 0 0 0 0 
0 0 0 0 0 0 0 0 0 
0 0 0 0 0 0 0 0 0 
0 0 0 0 3.52453e-11 0 0 0 0 
1.14662e-11 0 0 3.49836e-11 0 0 0 0 0 
0 0 0 0 0 2.07838e-10 0 0 0 
0 0 0 0 0 1.54436e-10 0 0 0 
0 0 0 5.35916e-11 1.01342e-10 0 0 0 0 
0 0 0 0 0 0 0 0 0 
0 0 0 0 0 0 0 0 0 
0 0 0 0 0 0 0 0 0 
0 0 0 0 0 0 0 0 0 
0 0 0 0 0 0 0 0 0 
0 0 0 0 0 0 0 0 0 
9.57438e-11 0 1.37641e-10 2.61102e-08 0 0 0 0 0 
0 0 0 0 0 0 0 1.12987e-10 0 
0 0 0 3.52818e-11 0 0 0 0 0 
0 0 0 0 0 0 0 1.14533e-11 0 
0 0 0 0 0 0 0 0 0 
0 1.93719e-10 0 0 0 0 0 3.26264e-10 1.19684e-10 
0 0 0 0 2.2378e-10 1.19222e-10 0 0 0 
0 0 0 0 0 0 0 3.43963e-11 0 
0 0 0 0 0 0 0 0 0 
0 0 0 0 0 0 0 0 0 
0 0 0 0 0 7.36438e-12 0 0 0 
0 0 0 0 0 0 0 0 1.49897e-11 
1.95213e-10 0 6.25596e-11 1.82956e-10 0 0 0 0 9.31702e-11 
9.85572e-11 0 5.39478e-11 0 0 0 2.72546e-10 0 1.27873e-10 
8.91475e-11 8.96218e-11 7.94878e-11 0 1.07576e-10 0 0 0 0 