# vtk DataFile Version 5.1
vtk output
ASCII
DATASET STRUCTURED_POINTS
DIMENSIONS 100 100 1
SPACING 1 1 1
ORIGIN 0 0 0
POINT_DATA 10000
FIELD FieldData 6
feature_1 1 10000 float
0 0 0 9.52782e-12 0 0 0 0 1.44788e-11 
0 7.23936e-12 5.8973e-12 2.55653e-11 1.04034e-11 0 3.67314e-12 0 5.74352e-12 
1.48261e-11 1.3958e-11 1.78355e-11 2.00442e-11 0 0 1.59523e-11 0 1.56629e-11 
7.91879e-12 1.95461e-11 0 3.87619e-12 0 3.64752e-12 0 9.57188e-12 5.46173e-12 
0 3.29133e-11 0 0 4.86958e-12 3.58967e-12 0 3.18713e-12 0 
0 0 0 1.38646e-11 0 0 0 0 1.57057e-11 
2.58685e-12 0 0 8.14308e-12 0 2.88491e-12 0 0 0 
0 1.31816e-11 0 0 1.70299e-12 0 0 0 0 
9.30376e-12 0 0 0 0 0 0 0 0 
3.44999e-12 4.01151e-12 0 0 1.32282e-11 0 0 1.05363e-11 0 
0 1.41055e-11 0 0 0 0 0 8.24498e-12 0 
0 0 0 5.02992e-12 0 0 0 2.42489e-11 0 
0 1.58368e-11 0 1.34871e-11 3.51627e-12 1.48741e-11 0 0 0 
0 0 0 2.38108e-11 1.57465e-11 0 4.72342e-12 9.98354e-12 8.31447e-13 
3.57021e-12 0 4.11916e-12 5.45004e-13 1.77362e-11 0 0 8.92101e-12 0 
0 1.55856e-11 0 9.03834e-12 0 1.06624e-11 5.65639e-12 0 0 
0 0 4.7253e-12 1.1004e-11 0 9.35108e-12 0 0 0 
0 0 0 1.61765e-12 8.64858e-12 2.73568e-12 9.05403e-12 1.24279e-11 0 
0 0 0 0 0 2.08595e-12 1.67238e-11 0 1.6941e-13 
0 0 1.07862e-11 8.53292e-12 6.83364e-12 0 9.30933e-12 0 0 
0 2.73747e-12 0 0 0 0 0 0 0 
6.39608e-12 2.64507e-12 5.00191e-12 0 0 1.58266e-11 7.91608e-12 1.5362e-11 6.05266e-12 
5.28965e-12 0 9.63381e-12 0 0 1.48128e-11 0 0 0 
1.12939e-11 1.05898e-11 0 0 1.19102e-11 3.37554e-12 0 0 0 
7.36444e-12 1.46788e-12 0 1.94313e-12 0 6.97793e-12 0 5.70663e-12 7.30015e-12 
1.76101e-11 0 0 0 1.25159e-11 0 0 2.02306e-11 0 
0 0 1.05337e-11 0 0 8.94294e-12 1.91135e-13 0 1.13359e-11 
0 0 0 0 1.40619e-12 0 0 1.69738e-12 0 
0 0 0 1.10383e-11 0 7.15509e-12 1.4672e-11 0 0 
8.45209e-12 0 0 0 0 0 0 1.16211e-11 0 
0 7.0224e-12 0 0 1.39973e-11 0 8.04682e-12 5.70261e-12 0 
0 5.82729e-12 0 0 1.04019e-11 1.71044e-11 0 6.23218e-12 0 
0 2.37466e-11 0 1.41182e-11 0 4.32232e-12 0 4.74154e-12 1.20393e-11 
0 0 4.48254e-12 0 3.04823e-12 0 8.86349e-12 0 0 
0 6.68655e-12 0 0 0 0 4.29458e-12 2.67888e-12 0 
1.5033e-11 0 8.64764e-13 9.39949e-12 1.54176e-11 0 0 0 0 
0 5.86905e-12 3.95997e-12 4.14604e-12 7.30527e-12 0 0 0 0 
2.61036e-13 0 0 0 1.43587e-11 0 0 4.75993e-12 0 
9.36512e-12 8.32822e-12 0 0 9.79313e-12 0 0 5.02126e-12 0 
0 0 0 8.08613e-12 1.49133e-11 1.273e-11 8.85218e-12 0 0 
1.34042e-12 1.25723e-11 8.43626e-12 0 0 6.47545e-12 1.05259e-11 0 4.91133e-12 
0 0 0 0 0 9.15923e-12 0 0 0 
1.46395e-11 1.42783e-11 0 0 1.18403e-11 2.68087e-11 0 0 0 
0 2.73499e-11 1.70699e-11 1.16919e-11 0 1.08521e-11 0 1.26151e-11 0 
9.41833e-12 0 0 9.29127e-12 0 1.3387e-11 3.90637e-12 0 1.05872e-11 
0 0 6.04884e-12 0 0 0 0 1.72697e-11 5.50494e-12 
1.11105e-11 0 0 7.46522e-12 0 1.88244e-11 9.31441e-12 0 0 
1.32642e-13 0 1.08209e-11 0 0 0 0 2.09602e-11 0 
0 1.11569e-11 0 0 1.04471e-11 9.17157e-12 6.08032e-12 0 0 
0 0 0 3.04284e-12 1.61043e-11 6.88541e-12 0 2.6976e-11 1.28964e-11 
8.37251e-12 0 0 0 0 0 6.22256e-13 7.78452e-12 2.63159e-12 
0 1.65469e-11 0 0 0 0 0 0 0 
6.18327e-12 8.92631e-12 2.13732e-12 0 0 0 1.19509e-11 2.65195e-11 0 
5.31185e-12 0 0 8.99826e-12 0 0 1.69961e-11 2.05243e-11 1.43442e-11 
1.65113e-11 0 0 0 0 5.22191e-12 0 1.08105e-11 0 
6.42674e-12 0 1.20874e-11 0 2.14339e-12 0 1.63418e-12 2.35817e-11 0 
1.89071e-11 0 0 0 0 1.66308e-12 0 1.30929e-11 0 
0 1.47014e-11 3.70175e-12 0 0 0 0 9.96402e-12 0 
3.57792e-12 1.7559e-11 5.22018e-12 0 1.42334e-11 0 0 0 6.8318e-12 
4.59786e-12 0 0 0 0 0 1.07866e-11 1.21081e-11 0 
0 0 3.48344e-11 5.49772e-12 6.25127e-11 8.65237e-12 1.04934e-11 0 0 
1.59287e-11 7.89346e-13 0 0 0 0 0 0 5.71533e-12 
1.80237e-11 0 7.02326e-12 0 0 7.33398e-12 0 1.6062e-11 0 
0 0 1.10771e-11 8.69478e-12 0 0 9.4532e-12 0 0 
0 7.49596e-12 0 0 0 0 7.52035e-12 0 2.47034e-12 
0 0 2.59555e-11 9.88283e-12 7.09385e-12 3.70235e-12 0 0 0 
0 0 1.28719e-11 2.37151e-12 3.4052e-12 0 0 0 0 
0 0 0 0 1.16294e-11 0 0 7.74602e-12 6.61086e-12 
8.2157e-13 0 4.47247e-12 1.02938e-11 0 0 0 0 4.11666e-12 
0 9.95239e-13 1.04511e-12 0 0 2.33806e-12 0 3.01375e-12 5.05851e-12 
1.42759e-11 1.06955e-11 0 0 2.77605e-12 1.36002e-11 0 4.75676e-12 0 
1.31793e-11 0 0 5.8499e-12 0 0 0 0 0 
0 0 1.64471e-11 0 4.99006e-12 4.70928e-12 0 0 0 
2.36081e-11 0 2.50594e-11 0 0 0 0 0 0 
1.47737e-11 7.16031e-12 0 0 0 0 3.23627e-12 1.12472e-11 0 
1.18934e-11 0 0 0 5.1685e-12 1.81657e-12 5.31117e-12 0 2.6918e-12 
0 0 2.64142e-12 1.20879e-11 9.55004e-12 0 0 9.16985e-12 2.93985e-12 
0 0 0 0 0 0 0 1.9826e-11 2.03398e-11 
0 0 0 2.14798e-11 0 1.06216e-11 0 0 0 
0 0 1.48487e-11 8.27273e-12 7.81634e-12 2.1333e-12 0 7.55373e-12 0 
0 8.81952e-12 0 0 0 0 1.84739e-11 0 4.15091e-12 
8.76599e-12 0 1.1801e-11 5.12812e-13 8.69772e-12 6.88755e-12 1.28099e-11 4.00856e-12 0 
5.38332e-12 1.52915e-12 0 0 1.4411e-11 0 4.70851e-11 1.34005e-11 1.09376e-11 
1.92763e-12 0 7.81211e-12 0 0 2.06923e-11 9.24477e-13 0 0 
0 0 0 8.30964e-13 1.60156e-11 0 0 0 0 
0 0 0 7.27662e-12 0 0 0 7.49362e-12 0 
0 0 0 0 0 0 1.68549e-12 3.51981e-12 0 
5.82995e-12 0 0 1.05106e-11 1.42947e-11 0 0 1.03794e-11 0 
0 0 0 0 0 6.88336e-12 0 1.22637e-11 0 
0 0 0 9.09063e-12 0 1.84568e-11 4.87991e-12 1.98074e-11 1.4591e-11 
0 0 0 5.59488e-12 0 0 0 9.87958e-12 0 
0 0 0 1.40982e-11 1.0845e-11 1.94023e-11 1.8043e-11 0 6.96578e-12 
0 0 0 1.15549e-11 1.16115e-11 0 3.18472e-11 0 9.27346e-12 
0 0 4.29774e-12 0 0 0 4.47931e-10 0 1.95779e-10 
4.35683e-10 0 3.36918e-13 6.92886e-12 0 0 1.70663e-12 0 0 
1.55518e-11 3.08291e-11 8.31734e-12 0 1.85422e-11 1.5973e-11 8.37384e-12 0 2.90102e-11 
0 8.53809e-12 2.37719e-11 1.20321e-11 0 9.56404e-12 0 0 1.16591e-11 
0 0 0 1.62344e-12 5.5254e-11 3.57199e-12 0 0 9.54072e-12 
0 0 9.35968e-12 2.23772e-11 1.4558e-11 7.98991e-12 7.01883e-12 0 5.76638e-12 
0 1.35097e-11 0 5.66062e-12 0 0 0 0 0 
0 0 0 0 2.45904e-12 0 0 0 3.98578e-12 
0 1.28421e-11 0 0 0 0 0 0 0 
0 1.50707e-11 0 8.96479e-12 3.19201e-12 9.57941e-12 0 2.33388e-12 1.18884e-11 
1.09089e-10 7.53638e-11 0 0 0 0 0 0 0 
2.97682e-12 1.16848e-11 5.13033e-12 5.12011e-11 1.70117e-11 0 4.92384e-12 0 1.16284e-10 
0 0 1.15879e-11 0 0 2.64409e-12 6.61912e-11 4.10293e-12 1.96792e-11 
0 0 6.58393e-12 1.58383e-12 9.96735e-11 0 0 0 9.93838e-11 
0 2.51449e-12 4.23914e-12 0 8.39405e-12 1.63618e-11 4.65875e-12 5.21709e-12 2.38912e-12 
2.66006e-11 1.06689e-11 6.36637e-12 0 2.35922e-11 8.96165e-11 1.50212e-11 5.25236e-12 0 
4.26116e-12 0 0 1.79568e-11 3.31241e-12 0 2.63996e-12 0 0 
0 0 0 1.20942e-11 0 0 1.38381e-11 0 0 
1.74533e-11 2.48354e-12 0 6.57915e-12 0 0 4.89492e-12 5.09213e-12 0 
0 1.31122e-11 7.36567e-12 0 4.54791e-12 0 0 0 0 
6.29976e-12 2.92982e-12 0 0 1.73294e-11 2.70839e-12 0 9.59686e-12 0 
0 4.07446e-11 1.3006e-10 1.10487e-11 1.12238e-10 0 0 0 0 
0 1.41824e-11 9.1949e-11 1.06627e-11 0 1.29362e-11 0 8.35163e-12 0 
0 0 0 8.09221e-12 9.8116e-12 2.53783e-10 7.40067e-11 0 0 
0 1.21024e-11 6.1696e-12 1.93945e-10 0 0 0 2.06875e-09 5.82294e-10 
0 1.5229e-11 0 9.93495e-12 0 3.48627e-11 1.06229e-11 0 9.36287e-12 
0 5.20182e-11 0 0 9.70554e-12 0 2.28994e-11 0 0 
5.2721e-11 0 5.45323e-12 0 0 0 1.11357e-11 1.05225e-11 2.17812e-12 
0 7.4339e-12 0 1.78302e-11 0 2.3329e-12 0 0 0 
0 0 0 0 0 0 0 1.94893e-11 1.13273e-11 
1.29254e-11 6.97964e-12 1.96048e-11 1.72566e-11 0 0 0 0 1.52058e-11 
0 0 0 4.92182e-12 1.71208e-11 3.23717e-11 0 0 1.32089e-10 
0 1.16673e-12 0 7.10094e-10 0 0 1.2047e-10 0 0 
6.25827e-12 1.11987e-12 0 1.1379e-10 1.48693e-11 0 8.94818e-12 0 0 
0 0 0 2.30411e-10 3.6996e-12 0 4.30066e-10 2.24233e-10 3.57778e-11 
0 0 0 0 1.53359e-11 0 7.56992e-12 0 1.97624e-11 
0 0 0 3.83744e-11 0 0 4.29377e-11 3.91673e-11 0 
1.19194e-10 0 0 0 6.51008e-10 0 0 0 0 
0 2.614e-11 8.21345e-12 0 9.33652e-12 8.09256e-12 0 8.17372e-12 4.63031e-12 
0 0 0 3.57345e-12 0 0 2.19715e-11 1.01923e-11 0 
0 0 0 6.37749e-12 0 1.02128e-11 1.43039e-11 1.27264e-11 2.19379e-13 
0 0 0 0 3.06964e-12 1.34411e-11 0 0 0 
0 1.69963e-11 0 0 0 0 0 0 0 
0 0 3.32906e-11 1.29353e-11 0 1.19188e-11 0 0 0 
0 0 4.22624e-12 1.85274e-10 0 7.7232e-12 3.59711e-11 2.31108e-10 0 
0 1.05928e-11 0 7.97458e-07 5.54214e-09 1.94502e-09 0 0 0 
0 0 0 0 8.70541e-11 0 2.23732e-09 0 6.47359e-07 
0 0 1.36045e-12 0 1.12858e-11 1.58666e-11 1.65901e-11 0 1.03772e-11 
8.6836e-12 0 1.28865e-12 0 1.17353e-10 1.23989e-11 0 6.16899e-10 2.67951e-10 
7.83288e-11 0 0 0 0 0 0 0 0 
0 0 2.06887e-12 0 0 1.00773e-11 0 0 0 
0 0 0 0 0 1.07379e-11 1.24599e-11 7.81521e-12 0 
0 0 1.0398e-11 0 1.9334e-12 0 0 3.66716e-12 0 
3.65594e-12 0 1.7728e-11 0 0 0 5.21676e-12 0 4.39432e-11 
0 7.53532e-12 0 0 0 1.37332e-11 0 8.62264e-12 0 
0 0 1.58132e-10 0 0 0 0 0 0 
2.66465e-09 0 0 8.39388e-07 1.5267e-11 7.52757e-09 0 0 4.76092e-10 
7.6077e-10 2.63575e-10 0 0 0 0 0 3.6581e-11 0 
1.606e-11 8.3446e-11 2.43265e-09 1.0663e-09 7.69203e-10 0 1.32645e-10 4.86694e-10 0 
0 0 8.05321e-12 1.31295e-11 0 0 0 0 0 
0 1.4661e-09 0 2.55334e-11 0 5.13814e-11 0 0 0 
0 1.39179e-11 1.30706e-11 0 0 0 1.43515e-11 0 0 
7.82451e-12 6.26063e-12 1.01499e-11 5.34041e-12 0 0 0 0 3.2904e-12 
0 0 0 2.0608e-12 3.26585e-13 6.03314e-12 0 0 2.97776e-12 
0 0 0 0 0 0 2.77059e-11 0 1.44153e-11 
0 0 0 0 0 6.49434e-07 1.0921e-11 0 1.09991e-11 
1.60532e-10 2.55671e-10 8.25272e-10 1.93829e-09 0 8.4484e-09 1.97846e-10 2.27353e-10 1.55793e-09 
0 0 0 2.36965e-11 0 0 0 2.22128e-11 1.56896e-09 
6.5302e-12 0 0 1.31761e-12 1.4826e-11 0 0 0 0 
0 0 4.49776e-12 1.24044e-10 1.34947e-11 3.95999e-11 0 0 0 
0 0 0 4.56554e-11 1.04136e-09 0 1.94995e-09 4.12829e-10 0 
6.48834e-07 0 0 1.07545e-09 4.93714e-10 0 0 0 0 
0 0 0 0 0 0 3.15868e-12 0 0 
0 4.46399e-12 8.77072e-13 0 8.1436e-12 0 0 2.03673e-11 3.02252e-12 
0 1.02533e-11 1.11303e-11 5.81645e-12 0 0 1.56784e-11 0 0 
0 0 0 0 1.31189e-11 8.10575e-12 1.18906e-11 0 0 
1.28355e-11 0 0 1.08469e-11 1.94943e-13 0 0 4.42343e-11 7.7464e-13 
0 0 0 9.66263e-11 0 3.68325e-09 6.49195e-07 0 2.75804e-09 
8.20962e-11 0 0 5.59003e-12 0 0 8.04104e-07 6.42062e-13 0 
7.01728e-10 0 1.18522e-11 8.28437e-12 1.25366e-12 3.47042e-11 6.53734e-12 1.10414e-11 0 
1.01306e-11 1.43147e-10 0 5.19414e-12 0 0 0 2.29698e-12 0 
1.18714e-10 1.79871e-10 0 1.55193e-11 0 0 6.00425e-12 0 7.48524e-12 
0 0 0 0 4.70993e-10 0 0 7.62861e-12 0 
0 0 7.0945e-12 0 0 0 0 0 1.0909e-11 
0 0 0 0 1.05427e-11 1.70618e-11 0 7.23404e-12 0 
0 0 2.02473e-12 0 0 1.4464e-11 0 4.78031e-12 0 
0 0 0 1.69082e-11 1.67074e-11 6.00105e-12 0 8.22039e-11 4.37194e-12 
0 9.02816e-11 3.7948e-11 5.27584e-10 0 0 2.00196e-09 1.88289e-11 6.76631e-12 
0 0 0 5.58153e-10 1.79446e-11 1.29208e-11 1.84324e-09 0 0 
1.99836e-11 0 7.32534e-10 0 0 7.46907e-07 1.22987e-08 7.06535e-12 0 
0 0 6.93485e-07 0 5.52534e-10 1.09293e-09 0 1.19945e-11 1.64218e-10 
0 2.83039e-10 0 0 1.38893e-09 0 0 0 0 
1.14418e-10 0 0 6.69971e-10 0 0 1.36304e-11 0 1.20782e-11 
0 9.06611e-11 0 0 5.48719e-11 0 1.47401e-11 0 0 
5.99407e-11 0 0 0 0 6.17294e-12 0 0 0 
0 0 0 5.84763e-12 0 0 0 2.84433e-11 2.3222e-11 
2.69889e-12 0 0 0 1.48724e-11 2.33047e-12 1.32124e-11 1.94538e-11 0 
1.1445e-11 4.87566e-12 0 0 2.33974e-11 0 2.25252e-11 2.31756e-11 9.96517e-12 
2.00771e-10 1.92436e-11 0 0 7.79534e-12 5.1542e-10 0 4.92498e-09 1.96095e-11 
1.51064e-09 1.72454e-11 4.37282e-10 3.45061e-10 0 2.02534e-10 0 1.2153e-11 2.6082e-09 
0 0 0 0 1.15156e-09 0 6.3552e-12 8.97155e-12 0 
0 0 6.5508e-11 0 0 0 0 3.3623e-10 0 
3.51588e-11 0 7.09024e-11 0 0 0 0 7.22894e-07 3.89068e-12 
7.22714e-07 7.493e-09 1.22738e-09 2.1248e-12 2.09809e-11 0 0 0 6.69973e-07 
0 0 0 0 1.05136e-10 9.60422e-12 7.90279e-12 0 0 
0 0 8.57425e-11 0 6.05561e-13 0 1.70139e-11 2.13033e-12 0 
1.50009e-11 0 0 0 4.21504e-12 4.03105e-12 0 4.2212e-12 0 
8.76673e-14 0 0 0 7.83152e-12 7.12982e-12 5.75706e-12 0 1.95793e-12 
0 1.18101e-11 0 0 2.78073e-11 0 0 5.02026e-12 1.8251e-11 
0 1.23731e-11 0 0 1.13028e-11 4.2251e-09 1.54701e-11 1.67265e-09 0 
1.11939e-11 0 0 5.71424e-12 0 0 3.83642e-10 0 0 
1.1377e-10 1.39477e-09 0 5.56229e-09 5.11976e-09 3.05638e-10 4.95801e-10 0 0 
0 7.65021e-12 0 1.49544e-11 0 5.33247e-12 1.71103e-09 0 3.18464e-12 
1.218e-10 0 8.69417e-12 0 0 0 0 3.93025e-10 0 
0 0 0 1.03141e-12 6.1946e-11 0 0 6.24947e-10 1.07395e-09 
0 4.35739e-10 1.78825e-09 0 1.41916e-09 7.24818e-12 0 2.54545e-11 0 
0 0 0 0 1.94916e-10 1.23821e-11 1.49094e-10 0 1.98835e-11 
0 1.44545e-11 0 0 0 0 2.21038e-13 0 6.07415e-12 
0 0 0 1.20311e-11 7.91431e-12 6.31576e-12 1.0486e-11 0 9.69645e-12 
0 0 0 0 0 0 0 2.30294e-12 0 
1.70363e-12 0 0 8.01221e-11 0 2.92107e-10 0 2.45398e-09 1.50773e-09 
3.35477e-09 6.52197e-07 8.31101e-10 1.37364e-11 6.90525e-12 0 0 0 1.20206e-11 
3.08865e-11 0 0 2.92064e-10 6.53304e-07 6.18557e-12 0 0 7.26899e-12 
0 9.04352e-07 9.21555e-07 0 2.22472e-09 7.24527e-07 0 0 0 
1.55679e-10 0 4.5652e-12 0 0 1.07705e-11 1.3191e-10 0 0 
0 1.75985e-09 0 3.51933e-10 4.40196e-11 1.57131e-09 1.8683e-11 1.58216e-09 0 
0 0 0 1.24488e-09 9.43371e-10 0 2.26614e-10 4.89482e-10 0 
0 0 1.2598e-10 9.21129e-11 0 3.10736e-12 3.3254e-10 0 2.16304e-10 
1.6778e-11 2.28854e-12 0 1.0312e-11 0 0 0 1.25351e-11 3.6385e-12 
0 0 0 0 0 0 0 1.55059e-11 0 
0 1.10683e-11 2.59624e-11 1.11236e-11 0 0 4.55755e-13 7.05512e-12 6.25721e-12 
0 2.10123e-11 2.14799e-13 8.27826e-10 2.80001e-09 4.14777e-09 6.49375e-07 0 1.2059e-10 
0 0 0 2.22867e-11 0 1.52476e-11 0 7.01519e-11 0 
0 3.03066e-12 3.494e-12 1.12442e-09 1.4147e-11 0 0 1.01997e-11 0 
0 0 0 0 0 0 1.98364e-09 0 9.70747e-10 
0 1.09789e-11 0 0 8.34217e-12 2.51961e-10 5.14322e-12 4.38812e-12 0 
0 6.05851e-10 0 0 0 0 7.91361e-10 0 0 
0 6.71497e-07 0 0 9.99268e-12 0 0 7.56632e-12 0 
3.50297e-10 1.82022e-10 0 1.10769e-11 0 4.8144e-12 0 1.45319e-09 0 
0 0 0 7.87229e-11 0 0 2.17707e-12 1.65833e-12 2.15448e-11 
1.04521e-11 1.4622e-11 1.82563e-12 0 0 0 1.77092e-11 0 0 
0 7.52755e-12 0 0 0 0 0 0 1.22314e-11 
0 0 0 0 0 7.39327e-10 0 8.86292e-12 0 
2.02019e-09 4.44065e-12 1.21344e-09 1.65171e-10 1.62663e-09 6.31754e-10 0 0 5.87526e-12 
0 0 4.29894e-11 0 6.9357e-12 0 0 0 6.18961e-10 
1.72936e-09 0 0 0 0 1.16905e-11 0 3.50676e-09 4.84781e-10 
0 0 0 2.08596e-12 4.90108e-11 2.98218e-10 4.87966e-12 3.21246e-11 0 
0 2.11794e-11 0 1.01029e-12 0 0 3.31447e-10 0 0 
0 4.85129e-11 0 0 0 0 2.92711e-11 0 1.38684e-09 
7.1485e-12 0 0 2.09028e-11 0 0 1.43505e-09 4.91046e-09 0 
0 0 0 0 8.18839e-13 0 0 1.22275e-11 0 
0 0 0 0 1.02818e-12 1.36437e-12 1.77189e-12 0 0 
0 0 2.22864e-11 0 0 3.48591e-11 0 1.65053e-11 0 
0 1.04618e-10 0 0 0 4.04614e-10 2.05811e-11 0 0 
0 0 1.23013e-11 0 0 3.81569e-11 0 1.30403e-11 0 
0 3.63665e-12 7.15493e-12 0 0 0 8.54297e-10 7.78129e-10 7.30882e-12 
6.24482e-10 2.25248e-10 2.15677e-09 6.46857e-12 0 0 0 0 0 
1.59669e-11 3.58694e-10 1.36345e-09 1.24551e-11 0 0 0 2.26275e-10 1.77583e-11 
0 1.06805e-11 4.08004e-10 0 0 4.43373e-12 0 0 2.00589e-12 
2.23268e-10 0 2.02276e-11 5.77411e-11 0 2.01796e-09 1.75993e-11 4.78686e-12 0 
0 0 0 0 0 0 0 0 1.90314e-12 
7.22599e-07 0 0 0 0 1.86883e-12 0 2.67887e-11 6.62208e-12 
6.964e-12 0 0 3.22479e-12 0 0 0 0 0 
0 0 0 2.01803e-12 0 0 0 3.51741e-10 0 
2.19932e-12 0 0 0 3.56824e-12 0 0 0 0 
0 5.83194e-10 0 3.88954e-10 0 0 0 1.67595e-09 2.92938e-10 
0 0 3.92748e-10 4.77347e-10 2.97496e-10 9.16922e-10 7.4992e-10 0 0 
0 8.77502e-12 6.10951e-11 0 1.98181e-09 0 0 8.81897e-07 8.79172e-07 
1.31588e-11 0 1.49194e-11 0 0 0 0 1.80655e-11 0 
0 9.99487e-11 9.97257e-12 2.98225e-10 1.13642e-10 8.72946e-11 3.9469e-11 0 6.49605e-07 
1.26018e-11 0 3.03835e-11 2.70868e-10 0 0 2.72737e-10 3.03169e-11 3.38495e-10 
8.88346e-12 6.58064e-07 8.27084e-09 9.69138e-12 5.88449e-11 1.40642e-11 0 8.41353e-12 3.21337e-09 
7.56486e-09 1.62655e-09 4.10034e-12 1.45678e-12 1.23623e-11 3.16532e-10 0 0 0 
0 0 1.22327e-11 2.96497e-12 0 5.18881e-12 2.35098e-11 0 0 
3.03248e-11 0 0 5.11235e-13 5.21343e-12 0 0 1.29184e-10 2.65558e-11 
0 0 5.78892e-11 1.39633e-11 0 0 7.96294e-12 1.24205e-09 0 
7.9055e-12 5.65316e-10 0 0 8.06955e-11 2.4783e-10 0 0 0 
1.44674e-09 1.32368e-11 0 0 0 0 0 0 0 
1.19338e-11 2.15415e-13 0 2.74055e-12 0 1.31064e-09 0 2.09332e-10 3.65652e-09 
0 1.02614e-11 0 0 0 0 6.48135e-07 1.9061e-09 5.90852e-12 
1.33506e-09 0 2.05122e-10 1.28754e-11 0 0 0 3.0179e-09 0 
1.09992e-11 0 0 0 0 0 0 2.04148e-11 0 
0 1.6886e-12 1.70898e-09 6.58113e-10 0 0 1.16409e-09 1.01975e-11 0 
0 0 7.29753e-07 1.79052e-09 0 2.39801e-10 0 0 0 
6.44908e-12 0 0 0 0 0 1.08167e-11 0 0 
0 0 0 7.25039e-12 1.77325e-11 8.08591e-11 0 0 0 
0 0 3.77468e-11 0 0 1.91606e-10 0 0 0 
0 0 0 1.71756e-10 1.03957e-11 0 0 0 1.98184e-11 
0 0 3.89583e-09 0 9.97566e-10 0 0 5.02486e-10 5.6429e-12 
0 0 9.80843e-11 8.13169e-12 0 0 3.11226e-11 2.98012e-09 3.35798e-13 
3.82377e-09 0 1.42161e-12 2.58645e-10 2.11202e-09 0 6.90938e-10 2.48424e-09 9.99094e-10 
0 1.99216e-11 0 0 0 0 4.24226e-11 0 4.28515e-11 
0 0 2.15332e-09 0 0 0 8.84902e-09 6.5707e-07 0 
3.94307e-10 0 1.37483e-11 0 5.52183e-12 4.71279e-11 5.63543e-11 0 6.71044e-10 
6.6677e-11 7.77927e-12 0 0 1.43707e-11 5.35219e-10 2.48002e-11 0 3.8891e-12 
1.11823e-11 6.18551e-12 0 0 1.19241e-11 1.80262e-11 0 1.17106e-11 0 
4.7016e-12 1.69845e-11 6.80693e-12 0 1.13263e-11 0 1.08234e-11 0 0 
0 1.5455e-11 8.88422e-12 0 0 0 2.96135e-12 3.80543e-12 1.42093e-11 
7.22748e-07 6.7442e-12 0 1.79e-10 0 0 0 0 0 
0 0 4.53387e-09 6.49807e-07 0 1.81445e-12 0 4.55291e-09 7.02904e-07 
1.70116e-11 0 1.16069e-09 0 2.50487e-13 0 0 1.14177e-09 1.09679e-11 
0 4.06656e-12 0 6.62326e-12 0 7.93815e-10 0 0 0 
0 2.12293e-11 4.38726e-11 6.07153e-12 5.55642e-10 1.23263e-10 2.80421e-10 4.58586e-11 0 
0 0 1.44771e-09 0 2.25364e-09 3.75804e-11 0 1.35379e-11 0 
0 2.16056e-10 3.04925e-09 0 0 0 1.56863e-11 0 0 
0 0 0 2.95043e-09 0 0 0 0 2.55733e-11 
1.20619e-10 0 0 0 0 6.66866e-12 0 1.00659e-11 0 
0 0 0 1.52115e-13 0 0 6.72684e-11 4.71651e-11 0 
0 0 0 6.62559e-07 1.54111e-11 6.01563e-12 0 0 7.80992e-07 
0 1.84031e-11 0 3.73073e-11 0 1.64432e-10 0 0 0 
0 0 0 1.0542e-09 1.10429e-11 2.59534e-11 0 2.38508e-12 0 
1.0325e-11 0 7.09903e-07 0 0 3.19755e-09 0 3.57236e-11 0 
0 1.07249e-09 0 2.32728e-10 3.29126e-11 7.42264e-10 4.56191e-12 1.18023e-11 3.311e-12 
1.03365e-09 3.78287e-12 0 9.79608e-10 0 0 0 0 0 
0 0 0 4.76876e-12 1.14865e-10 4.14064e-12 0 5.23749e-12 0 
1.80668e-11 0 1.29513e-11 0 0 6.58891e-07 0 1.45572e-11 0 
0 0 0 0 0 1.0047e-09 1.00377e-11 1.05769e-09 4.41461e-11 
2.31894e-10 0 9.15e-12 0 1.63181e-11 6.40315e-12 4.34458e-12 0 0 
0 0 3.69297e-12 0 0 0 2.2467e-11 1.04089e-12 0 
0 0 0 0 8.09528e-12 2.40788e-10 0 0 0 
0 0 3.68787e-09 0 1.13061e-10 0 0 0 0 
0 0 0 6.0403e-12 0 0 8.22975e-12 0 0 
0 0 0 0 0 1.849e-12 2.82051e-09 6.46343e-09 3.77664e-09 
0 5.84343e-09 7.08252e-07 8.71827e-12 0 2.09979e-10 0 5.44024e-12 8.38858e-12 
5.48534e-10 0 0 0 3.49368e-09 2.79056e-09 4.65201e-09 0 0 
2.1775e-11 0 0 0 0 0 0 0 0 
0 0 2.48947e-09 1.15649e-11 0 0 0 2.69522e-12 0 
7.78926e-11 9.88157e-13 0 3.73588e-10 0 6.76407e-07 1.40353e-11 9.51403e-12 7.81967e-12 
4.71918e-10 0 0 1.72325e-11 0 0 0 0 0 
0 7.39555e-12 5.72962e-12 1.41256e-11 0 7.5505e-12 0 0 0 
7.01929e-11 0 1.10142e-11 5.73066e-10 4.54626e-10 1.08063e-11 1.4459e-09 1.79357e-09 7.15408e-07 
8.16417e-09 0 7.47926e-07 3.23787e-09 0 0 0 4.83987e-12 9.34153e-12 
0 0 5.04303e-12 0 0 0 0 8.5293e-10 6.57146e-13 
1.0882e-11 0 1.13285e-09 8.70297e-12 2.43608e-12 0 0 2.47627e-12 8.34689e-12 
0 0 0 9.71602e-09 0 1.37058e-11 0 0 1.14035e-11 
1.29096e-10 1.22855e-11 4.87017e-12 8.61567e-12 9.26206e-10 0 6.62153e-07 4.03903e-09 3.67902e-09 
0 0 0 3.80149e-10 1.0565e-10 0 6.53314e-07 1.77215e-09 0 
0 0 6.38388e-09 0 2.15799e-09 0 6.64023e-12 0 0 
4.53988e-12 0 1.03046e-09 3.12449e-12 0 1.1199e-11 0 4.04543e-10 6.60959e-12 
0 0 0 7.46512e-12 0 5.55515e-12 0 2.08366e-13 2.82165e-12 
0 4.91895e-12 0 0 0 0 8.53901e-12 0 0 
0 1.17445e-11 0 0 1.36531e-10 2.91202e-10 0 0 1.62532e-11 
8.40192e-10 0 5.14521e-11 5.2179e-12 6.23124e-10 0 0 1.13179e-09 2.8941e-09 
0 0 3.34108e-09 1.79977e-09 3.41885e-11 0 1.86041e-10 6.08649e-12 0 
2.2602e-10 8.69925e-12 0 5.25504e-11 0 1.53726e-11 0 0 7.20567e-12 
7.06226e-07 0 0 7.28106e-07 4.20877e-09 0 0 0 0 
1.34404e-10 3.9172e-12 0 1.52989e-10 0 0 0 3.22744e-09 0 
0 0 0 0 1.86584e-09 0 4.76257e-09 0 0 
0 1.21268e-11 0 6.53476e-07 0 4.29568e-12 1.25648e-09 8.56257e-10 0 
1.21483e-11 2.39391e-11 2.90769e-11 0 2.40676e-09 1.57944e-11 0 0 2.14021e-11 
1.00457e-11 0 0 0 2.68233e-11 0 1.31307e-11 4.14959e-12 0 
1.32676e-11 1.01215e-11 3.1634e-12 4.74019e-12 0 0 0 0 0 
0 0 0 7.90172e-11 9.74392e-12 0 0 4.55033e-12 3.61886e-10 
0 9.74929e-11 0 2.06355e-09 1.30184e-09 0 2.4428e-09 3.87354e-09 0 
1.03135e-11 8.76787e-07 3.86257e-12 0 8.39649e-12 0 2.53093e-10 1.61207e-12 9.58344e-11 
3.45146e-13 0 0 8.09782e-12 0 0 0 7.26133e-07 0 
7.76539e-09 0 3.56989e-12 9.5015e-12 5.29539e-12 0 1.74923e-10 5.79291e-10 0 
7.83021e-12 0 2.75608e-11 8.97475e-10 1.48331e-09 3.29234e-09 1.8789e-09 0 0 
0 1.25243e-11 0 4.14709e-12 0 0 0 0 1.09583e-11 
0 0 1.79781e-11 1.90451e-10 4.65801e-12 0 0 1.00222e-09 5.78058e-13 
3.70588e-10 1.56915e-11 0 0 0 2.56585e-13 0 6.79605e-07 0 
0 0 0 1.28881e-10 0 4.18952e-12 0 8.19482e-13 0 
1.61868e-11 4.9923e-12 0 8.79887e-12 0 0 2.96279e-11 0 0 
0 0 8.9337e-12 1.15569e-11 4.7747e-12 0 0 0 0 
2.8496e-12 0 1.16117e-09 0 1.64607e-09 0 3.46079e-10 0 1.40979e-12 
3.83418e-09 0 8.90647e-07 1.92834e-11 6.36893e-12 0 5.9192e-10 1.22179e-11 0 
3.89704e-12 0 3.10302e-11 2.98256e-11 0 3.37722e-09 1.92103e-11 0 0 
0 0 0 2.5339e-09 4.71895e-11 0 0 8.71658e-10 0 
0 0 0 0 0 1.29569e-09 0 5.15187e-07 7.57442e-10 
1.14033e-11 2.98957e-09 2.06652e-11 5.14986e-12 0 0 2.48006e-09 3.33165e-09 6.42889e-12 
0 0 0 1.87553e-09 0 3.20933e-12 1.5023e-10 0 8.2199e-11 
0 0 4.57812e-13 0 0 2.94364e-10 2.62154e-09 0 4.38997e-10 
0 0 0 3.96449e-10 0 0 1.93371e-11 1.28046e-11 0 
0 2.2768e-11 2.99392e-12 0 0 0 1.65486e-11 0 1.16014e-11 
0 0 0 8.06272e-12 0 1.1456e-11 0 3.6354e-13 0 
2.96945e-10 0 5.04115e-10 0 0 0 6.74596e-10 0 0 
1.44253e-11 0 0 0 0 5.91484e-09 6.88431e-07 4.03304e-09 0 
0 5.10147e-10 0 5.19801e-12 0 3.33086e-14 4.41102e-10 1.263e-11 1.08523e-11 
0 0 8.40527e-12 0 0 7.0893e-12 0 0 0 
3.21521e-10 2.45947e-11 7.58857e-12 0 2.7481e-10 1.39418e-11 5.71295e-12 0 5.73505e-09 
0 0 0 5.93663e-12 7.53242e-07 1.63845e-11 8.10598e-07 0 0 
1.08289e-11 0 2.16498e-12 0 1.84246e-11 3.00128e-10 0 0 4.88328e-12 
0 3.47819e-13 0 2.50672e-11 0 0 6.59143e-07 1.1994e-11 1.44941e-11 
0 0 0 1.34678e-12 7.79154e-12 0 7.30149e-12 0 0 
0 0 0 1.8209e-12 0 0 0 0 0 
1.0167e-11 4.52512e-12 2.85578e-12 0 0 0 0 3.54725e-11 6.99726e-12 
0 1.27301e-11 0 0 0 0 1.20901e-11 6.87302e-11 1.97871e-12 
2.34917e-09 1.90613e-09 0 2.53231e-12 6.09917e-10 6.45225e-09 0 0 0 
0 1.44781e-09 0 0 0 0 0 1.01969e-11 0 
9.04874e-07 9.19592e-07 1.3311e-11 3.88547e-09 7.8032e-10 0 0 5.38547e-10 0 
8.73025e-11 0 0 0 0 7.3493e-12 1.10144e-10 0 0 
4.58533e-10 0 1.60469e-09 1.56634e-10 0 6.43693e-12 0 3.75463e-09 0 
1.22181e-09 9.90439e-12 4.18304e-12 0 2.15747e-11 1.43984e-09 8.70671e-10 5.11932e-11 0 
7.06401e-11 0 2.29528e-11 3.41202e-11 0 0 2.79849e-09 2.18573e-09 5.80795e-12 
0 3.28509e-09 6.70629e-11 5.51994e-10 0 0 0 0 3.37828e-12 
1.12706e-11 8.64245e-12 0 0 0 0 0 8.85702e-12 0 
0 0 0 0 0 1.03675e-11 0 0 1.28119e-11 
8.41988e-11 0 0 0 0 0 0 0 0 
1.35024e-10 0 0 2.23484e-09 8.18818e-12 0 0 0 0 
0 6.12045e-10 1.77393e-10 0 6.27248e-10 6.59853e-12 0 0 3.11928e-09 
0 0 0 8.01766e-12 4.53445e-09 1.15756e-09 5.37968e-12 0 0 
6.99095e-12 1.87497e-11 1.87334e-09 0 3.14303e-09 5.3872e-12 0 1.27606e-11 3.39148e-12 
3.18663e-12 0 1.24257e-10 0 0 5.07832e-12 2.79267e-10 9.95857e-13 0 
8.84241e-07 0 0 7.40253e-07 5.11654e-12 0 1.3581e-09 0 0 
0 0 0 2.3498e-11 0 2.32646e-11 0 2.01114e-12 2.54368e-11 
0 6.70245e-11 0 2.11204e-12 0 4.33476e-11 0 0 0 
1.31171e-11 0 0 0 1.12728e-11 6.21409e-12 0 0 0 
0 2.34322e-12 1.86421e-12 0 0 0 1.58785e-11 2.42869e-11 0 
1.08982e-10 0 0 2.87148e-10 0 0 0 0 0 
0 9.04663e-11 0 0 7.18804e-07 0 0 1.14509e-11 0 
4.40355e-09 0 0 2.3723e-09 2.81316e-13 5.51942e-10 0 0 1.02716e-09 
7.69088e-12 0 0 8.22743e-12 4.8133e-10 0 0 1.71484e-11 3.62139e-12 
0 7.67039e-07 0 2.92796e-11 9.38625e-12 6.6207e-07 0 0 0 
8.65292e-13 6.90058e-10 0 0 1.55328e-09 0 0 4.02268e-12 0 
8.38005e-07 0 0 5.1749e-12 2.8084e-09 0 2.08727e-10 0 5.4859e-10 
1.29465e-11 0 1.88381e-11 0 0 9.13369e-11 2.40369e-12 4.27769e-11 1.60732e-10 
0 0 1.43073e-11 0 3.74139e-10 0 1.65087e-12 0 1.14874e-11 
0 3.82812e-12 0 5.83709e-12 0 0 0 0 0 
2.21746e-11 6.83334e-12 0 0 0 0 0 1.03125e-13 0 
0 1.39049e-10 0 0 1.23986e-11 2.13327e-10 1.24853e-11 1.23507e-12 0 
0 0 1.04402e-09 2.2053e-10 0 0 1.63744e-11 7.83958e-07 0 
0 0 0 6.56969e-07 9.51846e-12 0 1.58395e-09 0 0 
0 0 0 7.29091e-12 7.16558e-07 0 9.99688e-10 4.64094e-11 5.02233e-12 
0 1.69297e-11 1.08819e-08 0 2.1336e-10 0 0 0 1.42457e-09 
0 0 0 3.68302e-11 2.55932e-13 0 0 7.21037e-11 2.55022e-12 
1.79532e-11 0 8.91104e-10 1.2813e-11 7.53326e-07 7.97125e-09 0 1.15934e-11 1.44131e-11 
6.29611e-13 1.1738e-10 4.74871e-11 0 2.75087e-12 0 0 6.38579e-11 0 
0 0 0 0 3.17554e-12 0 0 0 6.88752e-12 
0 8.71194e-12 1.2122e-11 1.84135e-12 1.1773e-11 0 5.659e-13 0 0 
8.72976e-12 0 0 0 1.09633e-11 1.42348e-11 8.95046e-12 0 4.47351e-12 
1.1286e-10 9.98364e-12 0 0 0 0 1.06697e-09 1.11788e-11 7.55896e-13 
1.42119e-11 0 0 1.14397e-11 2.65688e-10 1.41308e-10 3.67439e-12 0 5.20968e-09 
3.48354e-09 0 4.95906e-11 3.17734e-09 4.27517e-09 1.97297e-11 1.25046e-09 0 5.97488e-10 
0 1.34702e-11 4.55834e-10 2.02274e-11 0 7.05897e-09 0 9.61791e-10 8.51877e-09 
1.94945e-12 8.87593e-07 1.94303e-11 8.26986e-07 2.50663e-09 5.24943e-09 7.57256e-12 4.60477e-10 4.29802e-09 
0 0 0 0 0 0 0 0 1.46613e-11 
0 0 0 9.78602e-12 0 1.03407e-11 0 1.96646e-11 8.78558e-12 
0 0 0 1.1431e-11 1.09702e-11 0 3.62016e-11 0 0 
0 2.33088e-11 0 7.52132e-12 0 0 1.66581e-10 0 0 
6.4339e-12 0 1.85153e-11 0 1.45629e-11 1.81112e-11 0 1.50155e-11 2.02854e-12 
0 1.13767e-12 8.40028e-12 1.39941e-11 0 0 0 0 0 
0 0 0 0 0 9.02795e-12 8.15564e-10 5.17936e-12 3.72191e-12 
0 3.03628e-10 0 3.04863e-10 0 3.91332e-10 0 0 8.35744e-09 
7.36787e-07 0 0 1.80745e-09 3.1444e-12 0 5.80652e-12 1.31363e-09 2.74134e-10 
1.15645e-11 2.67481e-11 0 0 5.71843e-10 1.03006e-11 0 1.0462e-08 0 
0 8.66117e-07 0 1.36459e-11 0 2.0568e-11 0 0 0 
0 0 0 0 8.93746e-10 6.70462e-07 0 4.36443e-09 1.85088e-11 
0 0 0 0 0 0 1.42956e-11 3.67516e-10 0 
2.43514e-11 3.36632e-10 7.07997e-12 0 4.85763e-12 9.17809e-12 0 1.34129e-11 0 
0 0 7.25724e-10 8.37772e-11 0 0 6.65163e-12 0 0 
1.82527e-10 1.90037e-11 0 1.05663e-12 0 0 0 9.42922e-12 0 
1.1673e-11 0 0 0 0 9.7517e-12 1.54829e-12 3.21665e-11 0 
6.63394e-12 7.74675e-12 2.9198e-12 0 3.5913e-12 4.44417e-12 1.27803e-11 6.46545e-07 6.91632e-12 
0 0 8.71636e-12 3.86861e-11 0 0 0 0 4.34818e-12 
0 1.75299e-11 0 2.18161e-10 2.06138e-09 1.06776e-09 2.28626e-09 1.55794e-09 0 
0 6.33564e-10 1.81268e-11 0 5.37541e-12 0 8.72893e-11 1.29991e-11 2.80001e-12 
7.60504e-07 0 0 0 7.3261e-12 9.09899e-10 0 1.58894e-11 0 
1.16429e-10 3.95221e-11 0 1.6758e-09 3.13745e-11 0 0 1.88622e-12 0 
0 0 0 6.76504e-12 0 0 2.47633e-09 0 0 
1.09764e-09 3.24075e-10 0 0 6.16298e-12 1.57409e-11 0 0 2.13981e-11 
0 0 4.88948e-12 0 1.05142e-12 0 0 0 3.01546e-12 
0 0 2.2064e-10 0 0 0 4.15071e-12 3.99687e-12 8.78892e-12 
0 1.32951e-11 6.22416e-12 0 0 0 0 6.64851e-12 2.14794e-11 
0 0 4.92125e-11 0 3.04243e-10 0 0 0 0 
2.24238e-10 0 9.11692e-11 0 1.63244e-12 0 0 6.40926e-10 0 
0 0 1.29312e-10 3.59282e-12 1.05154e-11 0 2.37914e-11 7.39885e-12 1.45525e-11 
8.5146e-12 0 0 0 7.57979e-10 0 0 2.70059e-09 0 
0 0 0 0 0 0 0 0 4.31635e-11 
5.19778e-10 4.33964e-12 0 1.49937e-10 0 0 2.84966e-12 0 0 
0 0 1.10729e-11 8.5177e-07 0 8.47501e-07 9.86516e-09 0 0 
8.39988e-12 0 0 0 0 0 0 1.15176e-11 0 
4.33905e-10 0 4.46868e-12 0 4.47137e-09 2.96023e-11 0 0 0 
2.44111e-09 0 0 0 0 0 0 1.66706e-14 4.12418e-12 
2.95927e-12 3.73492e-12 0 7.789e-12 1.32805e-11 0 0 0 9.18386e-12 
0 1.66837e-11 0 4.50796e-11 1.36267e-11 0 0 2.13258e-10 2.21721e-10 
0 2.51038e-12 0 4.31729e-12 0 3.31787e-09 0 3.83399e-13 1.58908e-11 
0 3.882e-12 0 0 0 0 1.52762e-12 0 1.70593e-10 
0 2.43804e-12 0 1.93566e-11 0 5.66e-11 8.32186e-10 0 1.31217e-11 
2.34316e-09 1.01373e-12 0 1.03109e-11 8.51012e-12 0 9.2892e-13 1.25564e-11 0 
0 1.85629e-11 4.77518e-12 1.0937e-11 4.21522e-10 0 4.73445e-12 8.29272e-12 1.1207e-12 
6.7919e-07 2.22009e-09 0 0 0 8.8656e-07 6.99527e-12 0 0 
9.6042e-10 0 0 5.11819e-12 0 0 1.37596e-11 7.15322e-12 0 
5.69095e-10 6.95637e-12 1.72958e-09 1.24931e-10 0 0 7.68759e-12 1.39124e-12 7.20917e-07 
2.18163e-09 0 5.67026e-12 4.38717e-10 6.11023e-12 0 0 0 1.03209e-11 
0 1.46075e-11 2.21676e-11 0 0 2.07571e-11 0 4.79238e-12 0 
0 0 0 0 5.00276e-12 0 1.75839e-10 0 4.32094e-10 
0 1.26228e-11 0 0 1.93138e-11 3.41621e-12 0 6.46851e-07 3.48204e-12 
0 1.17036e-09 1.10838e-11 0 0 0 0 0 0 
0 0 0 1.00791e-11 6.51414e-07 3.10355e-12 4.3428e-11 0 1.55222e-11 
1.86039e-11 1.37306e-11 0 0 9.13036e-07 8.98758e-07 1.3329e-11 0 0 
1.57927e-10 0 0 2.43661e-11 7.33666e-12 2.07488e-13 1.14049e-10 0 0 
2.46702e-09 9.12059e-09 5.71441e-12 4.09829e-12 0 0 2.48565e-13 0 0 
1.21139e-10 5.80231e-11 1.39693e-11 4.4946e-10 0 4.19704e-10 0 0 7.95866e-12 
0 1.83139e-10 2.30569e-11 0 2.16897e-11 1.22844e-08 7.03712e-07 0 7.65467e-12 
0 0 0 0 0 1.11998e-11 0 3.43663e-11 5.93777e-11 
0 9.29004e-13 0 0 0 2.39323e-12 6.4534e-13 1.60505e-12 0 
1.06859e-11 7.1444e-12 7.5833e-12 0 0 0 2.94566e-12 0 5.37553e-12 
2.99588e-11 3.85542e-10 8.64328e-12 0 3.06057e-11 0 3.40853e-10 1.12499e-09 1.9267e-09 
0 6.40713e-14 1.0905e-10 0 6.15728e-12 0 0 0 0 
5.54e-10 6.64792e-13 9.58355e-12 2.0319e-11 2.09222e-09 0 0 0 0 
0 0 0 0 7.76434e-12 1.21299e-08 0 0 0 
0 0 0 4.76717e-10 0 6.19778e-12 0 3.79824e-10 0 
0 0 0 0 0 9.59069e-12 5.53413e-12 0 0 
0 2.67072e-11 2.49927e-10 4.97272e-12 0 1.05818e-11 0 0 2.8895e-11 
0 1.19565e-10 0 0 0 3.12379e-12 0 1.91382e-09 0 
0 0 7.15158e-07 0 1.36814e-10 1.19012e-11 0 0 0 
0 0 0 8.47038e-12 0 0 0 0 1.0202e-11 
3.08728e-12 0 3.59463e-12 2.98442e-11 0 0 6.70782e-12 0 1.15084e-11 
0 0 4.11704e-11 0 5.5519e-10 0 1.49361e-10 5.52215e-11 2.11891e-11 
0 0 0 0 0 7.55083e-11 1.11089e-12 1.05946e-11 0 
1.13854e-11 1.77626e-12 0 0 1.11502e-10 3.09865e-09 6.8409e-11 4.67583e-12 0 
5.86681e-10 0 0 0 0 1.28331e-11 0 0 3.15923e-09 
0 0 0 6.30399e-10 0 4.14136e-10 0 0 0 
0 0 1.24242e-10 3.79622e-10 2.44167e-10 0 0 0 0 