# vtk DataFile Version 5.1
vtk output
ASCII
DATASET STRUCTURED_POINTS
DIMENSIONS 250 250 1
SPACING 1 1 1
ORIGIN 0 0 0
POINT_DATA 62500
FIELD FieldData 6
feature_1 1 62500 float
0 0 0 0 0 0 0 0 0 
0 0 0 0 0 0 0 0 0 
0 0 0 0 0 0 0 0 0 
0 0 0 0 0 0 0 0 0 
0 0 0 0 0 0 0 0 0 
0 0 0 0 0 0 0 0 0 
0 0 0 0 0 0 0 0 0 
0 0 0 0 0 0 0 0 0 
0 0 0 0 0 0 5.94453e-13 0 0 
0 0 0 0 0 0 0 0 0 
0 0 0 0 0 0 0 0 0 
0 0 0 0 0 0 0 0 0 
0 0 0 0 0 0 0 0 0 
0 0 0 0 0 0 0 0 0 
0 0 0 0 0 0 0 0 0 
0 0 0 0 0 0 0 0 0 
0 0 0 0 0 0 0 0 0 
0 0 0 0 0 0 0 0 0 
0 0 0 0 0 0 0 0 0 
0 0 0 0 0 0 0 0 0 
0 0 0 0 4.0964e-12 0 0 0 0 
0 0 0 0 0 0 0 0 0 
0 0 1.47692e-12 0 0 0 0 0 0 
0 0 0 0 7.67941e-13 0 0 0 0 
0 0 0 0 0 0 0 0 0 
0 0 0 0 0 0 0 1.79417e-12 0 
0 0 0 0 0 0 0 0 0 
0 0 0 0 0 0 0 0 0 
0 0 0 0 0 0 0 0 0 
0 0 0 0 0 0 0 0 0 
0 0 0 0 0 0 0 0 0 
0 0 0 0 0 0 0 0 0 
0 0 0 0 0 0 0 0 0 
0 0 0 0 0 0 0 0 0 
0 0 0 0 0 0 0 0 0 
0 0 0 0 0 0 0 0 0 
0 0 0 0 0 0 0 0 0 
0 0 0 0 0 0 0 0 0 
0 0 0 0 0 0 0 0 0 
0 0 0 0 0 0 0 0 0 
0 1.86497e-12 0 0 5.86695e-13 0 0 0 0 
0 0 0 0 0 0 0 0 0 
0 0 0 0 0 0 0 0 0 
0 0 0 0 0 0 0 0 0 
0 0 0 0 0 0 0 0 0 
0 0 0 0 0 0 0 0 0 
0 0 0 0 0 0 0 0 0 
0 0 0 0 0 0 0 0 0 
0 0 0 0 0 0 0 0 0 
0 0 0 0 0 0 0 0 0 
0 0 0 0 0 0 0 0 0 
0 0 0 0 0 0 0 0 0 
0 0 0 0 0 0 0 0 0 
0 0 0 0 0 0 0 0 0 
0 0 0 0 0 0 0 0 0 
0 0 0 0 0 0 0 0 0 
0 0 0 0 0 0 0 0 0 
0 0 0 0 0 0 0 0 0 
0 0 0 0 0 0 0 0 0 
0 0 0 0 0 0 0 0 0 
0 0 0 0 0 0 0 0 0 
0 0 0 0 0 0 0 0 0 
0 0 0 0 0 0 0 0 0 
0 0 0 0 0 0 0 0 0 
0 0 0 0 0 0 0 0 0 
0 0 0 0 0 0 0 0 0 
0 0 0 0 0 4.05044e-13 0 0 0 
0 0 0 0 0 0 0 0 0 
0 0 0 0 0 0 0 0 0 
0 0 0 0 0 0 0 0 0 
0 0 0 0 0 0 0 0 0 
0 0 0 0 0 0 0 0 0 
0 0 0 0 0 0 0 0 0 
0 0 0 0 0 0 0 0 0 
0 0 0 9.20609e-13 0 0 0 0 0 
0 0 0 0 0 0 0 0 0 
0 0 0 0 0 0 0 0 0 
0 0 0 0 0 0 0 0 0 
0 0 0 8.67882e-14 0 0 0 0 0 
0 0 0 0 0 0 0 0 0 
0 0 0 0 0 0 0 0 0 
0 0 0 0 0 0 0 0 0 
0 0 0 0 0 0 0 0 0 
0 0 0 0 0 0 0 0 0 
0 0 0 0 0 0 0 0 0 
0 0 0 0 0 0 0 0 0 
0 0 0 0 0 0 0 0 0 
0 0 0 0 0 0 0 0 0 
0 0 0 0 0 0 0 0 0 
0 0 0 0 0 0 0 0 0 
0 0 0 0 0 0 0 0 0 
0 0 0 0 0 0 0 0 0 
0 0 0 0 0 0 0 0 0 
0 0 0 0 0 0 0 0 0 
0 0 0 0 0 0 0 0 0 
0 0 0 0 0 0 0 0 0 
0 0 0 0 0 0 0 0 0 
0 0 0 0 0 0 0 0 0 
0 0 0 0 0 0 0 1.24029e-13 0 
0 0 0 0 0 0 0 0 0 
0 0 0 0 0 0 0 0 0 
0 0 0 0 0 0 0 0 0 
0 0 0 0 0 0 0 0 0 
0 0 0 0 0 0 0 0 0 
0 0 0 0 0 0 0 0 0 
0 0 0 0 0 0 0 0 0 
0 0 0 0 0 0 0 0 0 
0 0 0 0 0 0 0 0 0 
0 0 0 0 0 0 0 0 0 
0 0 0 0 0 0 0 0 0 
0 0 0 0 0 0 0 0 0 
0 0 0 0 0 0 0 0 0 
0 0 0 0 0 0 0 0 0 
0 0 0 0 0 0 0 0 0 
0 0 0 0 0 0 0 0 0 
0 0 0 0 0 0 0 0 0 
0 0 0 0 0 0 0 0 0 
0 0 0 0 0 1.26229e-13 0 0 0 
0 0 0 0 0 0 0 0 0 
0 0 0 0 0 0 0 0 0 
0 0 0 0 0 0 0 1.43987e-12 0 
0 0 0 0 0 0 0 0 0 
0 0 0 0 1.14981e-12 0 0 0 0 
0 0 0 0 0 0 0 0 0 
0 0 0 0 0 0 0 0 0 
0 0 0 0 0 0 0 0 0 
0 0 0 0 0 0 0 0 0 
0 0 0 0 0 0 0 0 0 
0 0 0 0 0 0 0 0 0 
0 0 0 0 0 0 0 0 0 
0 0 0 0 0 0 0 0 0 
0 0 4.93551e-13 0 0 0 0 0 0 
0 0 0 0 0 0 0 0 0 
0 0 0 0 0 0 0 0 1.47495e-12 
0 0 0 0 0 0 0 0 1.63148e-12 
0 0 0 0 0 0 0 0 0 
0 0 0 0 0 0 0 6.85459e-14 0 
0 0 0 0 0 0 0 0 0 
5.40967e-13 0 0 0 0 0 0 0 0 
0 0 0 0 0 0 0 0 0 
0 0 0 0 0 0 0 0 0 
0 0 0 0 0 0 0 1.77292e-12 0 
0 0 0 0 0 0 0 0 0 
0 0 0 0 0 0 0 1.47187e-12 0 
0 0 0 0 0 0 0 0 0 
0 0 0 0 0 0 0 0 0 
0 0 0 0 0 0 0 0 0 
0 0 0 0 0 0 0 0 0 
0 0 0 0 0 0 0 0 0 
0 0 0 0 0 0 0 0 0 
0 0 0 0 0 0 0 0 0 
0 0 0 0 0 0 0 0 0 
0 0 0 0 0 0 0 0 0 
0 0 0 0 0 0 0 0 0 
0 0 0 0 0 0 0 0 0 
0 0 0 0 0 0 0 0 0 
0 0 0 0 0 0 0 0 0 
0 0 0 0 0 0 0 1.3942e-12 0 
0 0 0 0 0 0 0 0 0 
0 0 0 0 0 0 0 0 0 
0 0 0 0 0 0 0 0 0 
0 0 0 0 0 0 0 0 0 
0 0 0 0 0 0 0 0 0 
0 0 0 0 0 0 0 0 0 
1.53522e-12 0 0 0 0 0 0 0 0 
0 0 0 0 0 0 0 0 0 
4.90212e-13 0 0 0 0 0 0 0 0 
0 0 0 0 0 0 0 0 0 
0 0 0 0 0 0 0 0 0 
0 0 0 0 0 0 1.3351e-12 0 0 
0 0 0 0 6.21562e-13 0 0 0 0 
0 0 0 0 0 0 0 0 0 
0 0 0 0 0 0 0 0 0 
0 0 0 0 0 0 0 0 0 
0 0 0 0 0 0 0 0 0 
0 0 0 0 0 0 0 0 0 
0 0 0 0 0 0 0 0 0 
0 0 0 0 0 0 0 0 0 
0 0 0 0 0 0 0 0 0 
0 0 0 0 0 0 0 0 0 
0 0 0 0 0 0 0 0 0 
0 0 0 0 0 0 0 0 0 
0 0 0 0 0 0 0 0 0 
0 0 0 0 0 0 0 0 0 
0 0 0 0 0 0 0 0 0 
0 0 0 0 0 0 0 0 0 
0 0 0 0 0 0 0 0 0 
0 0 0 0 0 0 0 0 0 
0 0 0 0 0 0 0 0 0 
0 0 0 0 0 0 0 0 0 
0 0 0 0 0 0 0 0 0 
0 0 0 0 0 0 0 0 0 
0 0 0 0 0 0 0 0 0 
0 0 0 0 0 0 0 0 0 
0 0 0 0 0 0 0 0 0 
0 0 0 0 0 0 0 0 0 
0 0 0 0 0 0 0 0 0 
0 0 0 0 0 0 0 0 0 
0 0 0 0 0 0 0 0 0 
0 0 0 0 0 0 0 0 0 
0 0 0 0 0 0 0 0 0 
0 0 0 0 0 0 0 0 0 
0 0 0 0 2.54912e-12 0 0 0 0 
0 0 0 0 0 0 0 0 0 
0 0 0 0 0 0 0 0 0 
0 0 0 0 0 0 0 0 0 
0 0 0 0 0 0 0 0 0 
0 0 0 0 0 0 0 0 0 
0 0 0 0 0 0 0 0 0 
0 0 0 0 0 0 0 0 0 
2.70998e-12 0 0 0 0 0 0 0 0 
0 0 0 0 0 0 0 0 0 
0 0 0 0 0 0 0 0 0 
0 0 0 0 0 0 0 0 0 
0 0 0 0 0 0 0 0 0 
0 0 0 0 0 0 0 0 0 
0 2.82229e-12 0 0 0 0 0 0 0 
0 0 0 0 0 0 0 0 0 
0 0 0 0 0 0 0 0 0 
0 0 0 0 0 0 0 0 0 
0 0 0 0 0 0 0 0 0 
2.27395e-12 0 0 0 0 1.65215e-14 0 0 0 
0 0 0 0 0 0 0 0 0 
0 0 0 0 0 0 0 0 0 
0 0 0 0 0 0 0 0 0 
0 0 0 0 0 0 0 0 0 
0 0 0 0 0 0 0 0 0 
0 0 0 0 0 0 0 0 0 
0 0 0 0 0 0 0 0 0 
0 0 0 0 0 0 0 0 0 
0 0 0 0 0 0 0 0 0 
0 0 0 0 0 0 0 0 0 
0 0 0 0 1.90072e-12 0 0 0 0 
0 0 0 0 0 3.16799e-13 0 0 0 
0 0 0 0 0 0 0 0 0 
0 0 0 0 0 0 0 0 0 
0 0 0 0 0 0 0 0 0 
0 0 0 0 1.79241e-12 0 0 0 0 
0 0 0 0 0 0 0 0 0 
0 0 0 0 0 0 0 0 0 
0 0 0 0 0 0 0 0 0 
0 0 0 0 2.88309e-12 0 0 0 0 
0 0 0 0 0 0 0 0 0 
0 0 0 0 0 0 0 0 0 
0 0 0 0 0 0 0 0 0 
0 0 0 0 0 0 0 0 0 
0 0 0 0 0 0 0 0 0 
0 0 0 0 0 9.08333e-13 0 0 0 
0 0 0 0 0 0 0 0 0 
0 0 0 0 0 0 0 0 0 
0 0 0 0 0 0 0 0 0 
0 0 0 0 0 1.52794e-14 0 0 0 
0 0 0 0 0 0 0 0 0 
0 0 0 0 0 0 0 0 0 
0 0 0 1.60502e-12 0 0 0 0 0 
0 0 0 0 0 0 0 0 0 
0 0 0 0 0 0 0 0 0 
0 0 0 0 0 0 0 0 0 
0 0 0 0 0 0 0 0 0 
0 0 0 0 0 0 0 0 0 
0 0 0 0 0 0 0 0 0 
0 0 0 0 0 0 0 0 0 
0 0 0 0 0 0 0 0 1.19189e-12 
0 0 0 3.32024e-13 0 0 0 0 0 
0 0 0 0 0 0 0 0 0 
0 0 0 0 0 0 0 0 0 
0 0 0 0 0 0 0 0 0 
0 0 0 0 0 0 0 0 0 
0 0 0 0 0 0 0 0 0 
0 0 0 0 0 0 0 0 0 
0 0 0 0 0 0 0 0 0 
0 0 0 0 0 0 0 0 0 
0 0 0 0 0 0 0 0 0 
0 0 0 0 0 0 0 0 0 
0 0 0 2.07244e-13 0 0 0 0 0 
0 0 0 0 0 0 0 0 0 
0 0 0 0 0 0 0 0 0 
0 0 0 0 0 0 2.52949e-12 0 0 
0 0 0 0 0 0 0 0 0 
0 0 0 0 0 0 0 0 0 
0 0 0 0 0 0 0 0 0 
0 0 0 0 0 0 0 0 0 
0 0 0 0 0 0 0 0 0 
0 1.63265e-12 0 0 0 0 0 0 0 
0 0 0 0 0 0 0 0 0 
8.74491e-13 0 0 0 0 0 0 0 0 
0 0 0 0 0 0 0 0 0 
0 0 0 0 0 0 0 0 0 
0 0 0 0 0 0 0 0 0 
0 0 0 0 0 0 0 0 0 
0 0 0 0 0 0 0 0 0 
0 0 0 0 0 0 0 0 0 
0 0 0 0 0 0 0 0 0 
0 0 0 0 0 0 0 0 0 
0 0 0 0 0 0 0 0 0 
0 0 0 0 0 0 0 0 0 
0 0 0 0 0 0 0 0 0 
0 0 0 0 0 0 0 0 0 
2.08073e-12 7.82127e-13 0 0 0 0 2.53746e-12 0 0 
0 0 0 0 0 0 0 0 0 
0 0 0 0 0 2.09844e-12 0 0 0 
0 0 0 0 0 0 0 0 0 
0 0 0 0 0 0 0 0 0 
0 0 0 0 0 0 0 0 0 
0 0 0 0 0 0 0 0 0 
0 0 0 0 0 0 0 0 0 
0 0 0 0 0 0 0 0 9.4798e-14 
0 0 0 0 0 0 0 0 0 
0 0 0 0 0 0 0 0 0 
0 0 0 0 0 0 0 0 0 
0 0 0 1.17388e-12 0 0 0 0 0 
0 0 0 0 0 0 0 0 0 
0 0 3.93761e-12 0 0 0 0 0 0 
0 0 0 0 0 0 0 2.03237e-12 0 
0 0 0 0 0 0 0 0 0 
0 0 0 0 0 0 0 0 0 
0 0 0 0 0 0 0 0 0 
0 0 0 0 0 0 0 0 0 
0 0 0 0 0 0 0 0 0 
0 0 0 0 0 0 0 0 0 
0 0 0 0 0 0 0 0 0 
0 2.99766e-12 0 0 0 0 0 0 0 
0 0 0 0 0 0 0 0 0 
0 0 0 0 0 0 0 0 0 
0 0 0 0 0 0 0 0 0 
0 0 0 0 0 0 0 0 0 
0 0 0 0 0 0 0 0 0 
0 0 0 0 0 0 0 0 0 
0 0 0 0 0 0 0 0 0 
0 0 0 0 0 0 0 0 0 
0 0 0 0 0 0 0 0 0 
0 0 0 0 0 0 0 0 2.40181e-12 
0 0 0 4.59507e-13 0 0 0 0 0 
0 0 0 0 0 0 0 0 0 
0 0 0 0 0 0 0 0 0 
0 0 0 0 0 0 0 0 0 
0 0 0 0 0 0 0 0 0 
0 0 0 0 0 0 0 0 0 
0 0 0 0 0 0 0 0 0 
0 0 0 0 0 0 0 0 0 
0 0 0 0 0 0 0 0 0 
0 0 0 0 0 1.16998e-14 0 0 0 
0 0 0 0 0 0 0 0 0 
0 0 0 0 0 0 0 0 0 
0 0 0 0 0 0 0 0 0 
0 0 0 0 0 0 0 0 0 
0 0 3.7582e-13 0 0 0 0 0 8.716e-13 
0 0 0 0 0 0 0 0 0 
0 0 0 0 0 0 0 0 0 
0 0 0 0 0 0 0 0 0 
0 0 0 0 0 0 0 0 0 
0 0 0 0 0 0 0 0 0 
0 0 0 0 0 0 0 0 0 
0 0 0 0 0 0 0 0 0 
0 0 0 0 0 0 0 0 0 
0 0 0 0 0 0 0 0 0 
0 0 0 0 0 0 0 0 0 
0 0 0 0 0 0 0 0 0 
0 0 0 0 0 0 0 0 0 
0 0 0 0 0 0 0 0 0 
0 0 0 0 0 0 0 0 0 
0 0 0 0 0 0 0 0 0 
0 0 0 0 0 0 0 0 0 
0 0 0 0 0 0 0 0 0 
0 0 0 0 0 0 0 0 0 
0 0 0 0 0 0 0 0 0 
0 0 0 0 0 0 0 0 0 
0 0 0 0 0 0 0 0 0 
0 0 0 0 0 0 0 0 0 
0 0 0 0 0 0 0 0 0 
0 0 0 0 0 0 0 0 0 
0 0 0 0 0 0 0 0 0 
0 0 0 0 0 0 0 0 0 
0 0 0 0 0 0 0 0 0 
0 0 0 0 0 0 0 0 0 
0 0 0 0 0 0 0 0 0 
0 0 0 0 0 0 0 0 2.34414e-12 
0 9.48353e-13 0 0 0 0 0 0 0 
0 0 0 0 0 0 0 0 0 
0 0 0 0 0 0 0 0 0 
0 0 0 0 0 0 0 0 0 
0 0 0 0 0 0 0 0 0 
0 0 0 0 0 0 0 0 0 
0 0 0 0 0 0 0 0 0 
0 0 0 0 0 0 0 0 0 
0 2.28618e-12 0 0 0 0 0 0 0 
0 0 0 0 0 0 0 0 0 
0 0 0 0 0 0 0 0 0 
0 0 0 0 0 0 0 0 0 
0 0 0 0 0 0 0 0 0 
0 0 0 0 0 0 0 0 0 
0 0 0 0 0 0 0 0 5.87374e-13 
0 0 8.59868e-14 0 0 0 0 0 0 
0 0 0 0 0 0 0 0 0 
0 0 0 0 0 0 0 0 0 
0 0 0 0 0 0 0 0 0 
0 0 0 0 0 0 0 0 0 
0 0 0 0 0 0 0 0 0 
0 0 0 0 0 0 0 0 0 
0 0 0 0 0 0 0 0 0 
0 0 0 0 0 0 0 0 0 
0 0 0 0 0 0 0 0 0 
0 0 0 0 0 0 0 0 0 
0 0 0 0 0 0 0 0 0 
0 0 0 0 0 0 0 0 0 
0 0 0 0 0 0 0 0 0 
0 0 0 0 0 0 0 0 0 
0 0 0 0 0 0 0 0 0 
0 0 0 0 0 0 0 0 0 
0 0 0 0 0 0 0 0 0 
0 0 0 0 0 0 0 0 0 
0 0 0 0 0 0 0 0 0 
0 0 0 0 0 0 0 0 0 
0 0 0 0 0 0 0 0 0 
0 0 0 0 0 0 0 0 0 
0 0 0 0 5.74839e-13 0 0 0 0 
0 0 0 0 0 0 0 0 0 
0 0 0 0 0 0 0 0 0 
0 0 0 0 0 0 0 0 0 
0 0 0 0 0 0 0 0 0 
0 0 0 0 0 0 0 0 0 
0 0 0 0 0 0 0 0 0 
0 0 0 0 0 0 0 0 0 
0 0 1.17815e-12 0 0 0 0 0 0 
0 0 0 0 0 0 0 0 0 
0 0 0 0 0 0 0 0 0 
0 0 0 0 0 0 0 0 0 
0 0 0 0 0 0 0 0 0 
0 0 0 0 0 0 0 0 0 
0 0 0 0 0 0 0 0 0 
0 0 0 0 0 0 0 0 0 
0 0 0 0 0 0 0 0 0 
0 0 0 0 0 0 0 0 0 
0 0 0 0 0 0 0 0 0 
0 0 0 0 0 0 0 0 0 
0 0 0 5.3132e-13 0 0 0 0 0 
0 0 0 0 0 0 0 0 0 
0 0 0 0 0 0 0 0 0 
0 0 0 0 0 0 0 0 0 
0 0 0 0 0 0 0 0 0 
0 0 0 0 0 0 2.05234e-12 0 0 
0 0 3.74661e-12 0 0 0 0 0 1.72474e-12 
0 0 0 0 0 0 0 0 0 
0 0 0 0 0 0 0 0 0 
0 0 0 0 0 0 0 0 0 
0 0 0 0 0 0 0 0 0 
0 0 0 0 0 0 0 0 0 
0 0 0 0 0 0 0 0 0 
0 0 0 0 0 0 0 0 0 
0 0 0 0 0 0 0 0 0 
0 0 0 0 0 0 0 0 0 
0 0 0 0 0 0 0 0 0 
5.25458e-13 0 0 0 0 0 0 0 0 
0 0 0 0 0 0 0 0 0 
0 0 0 0 0 0 0 0 0 
0 0 0 0 0 0 0 0 0 
0 0 0 0 0 0 0 0 0 
0 0 0 0 0 0 0 0 0 
0 0 0 0 0 0 0 0 0 
0 0 0 0 0 0 0 0 0 
0 0 0 0 1.33679e-11 0 0 0 0 
0 0 0 0 0 0 0 0 0 
0 0 0 0 0 0 0 0 0 
0 0 0 0 0 0 0 0 0 
0 0 0 0 0 0 0 0 0 
0 0 0 0 0 0 0 0 0 
0 0 0 0 0 0 1.11334e-13 0 0 
0 0 0 0 0 0 0 0 0 
0 0 0 0 0 0 2.24865e-13 0 0 
0 0 0 0 0 0 0 0 0 
0 0 0 0 0 0 0 0 0 
0 0 0 0 0 0 0 0 0 
0 0 0 0 0 0 2.0223e-12 0 0 
0 0 0 0 0 0 0 0 0 
0 0 0 0 0 9.6723e-14 0 0 0 
0 0 0 0 0 0 0 0 0 
0 0 0 0 0 0 0 0 0 
0 0 0 4.43371e-12 0 0 1.36378e-12 0 0 
0 0 0 0 0 0 0 0 0 
0 0 0 0 0 0 0 0 0 
0 8.82929e-12 0 1.64293e-12 0 0 0 0 0 
0 0 0 0 0 0 0 0 0 
1.45229e-12 0 0 0 0 0 0 0 0 
0 0 0 0 0 0 0 0 0 
0 0 0 0 0 0 0 0 0 
0 0 0 0 0 0 0 0 0 
0 0 0 0 0 0 0 0 0 
0 0 0 0 0 0 0 0 0 
0 0 0 0 0 0 0 0 0 
0 0 0 0 0 0 0 0 0 
0 0 0 0 0 0 0 0 0 
0 0 0 0 0 0 0 0 0 
0 0 0 0 0 0 0 0 0 
0 0 0 0 0 0 0 0 0 
0 0 0 0 0 0 0 0 0 
0 0 0 0 0 0 0 0 0 
0 0 0 0 0 0 0 0 0 
0 0 0 0 0 0 0 0 0 
0 0 0 0 1.28352e-13 0 0 0 0 
0 0 0 0 0 0 0 0 0 
0 0 0 0 0 0 0 0 0 
0 0 0 0 0 0 0 0 0 
0 0 0 0 0 0 0 0 0 
0 0 0 0 0 0 0 0 0 
0 0 0 0 0 0 0 0 0 
0 0 0 0 0 0 0 0 0 
0 0 0 0 0 0 0 0 0 
0 0 0 0 0 0 0 0 0 
0 0 0 0 0 0 0 0 0 
0 0 0 0 0 0 0 0 0 
0 0 0 1.06291e-11 0 0 0 0 0 
0 0 0 0 0 0 0 0 0 
0 0 0 0 0 0 0 0 0 
0 0 0 0 0 0 0 0 0 
0 0 0 0 0 0 0 0 0 
0 0 4.56795e-13 0 0 0 0 0 0 
0 0 0 0 0 0 0 0 0 
0 0 0 0 0 0 0 0 0 
0 0 0 0 0 0 0 0 0 
0 0 0 0 0 0 0 0 0 
0 0 0 0 0 0 0 0 0 
0 0 0 0 0 0 0 0 0 
0 0 0 0 0 0 1.69572e-13 0 0 
0 0 0 0 0 0 0 0 0 
0 0 0 0 0 0 0 0 0 
0 0 0 0 0 0 0 0 0 
1.096e-12 0 0 0 0 0 0 0 2.26779e-12 
0 0 0 0 0 0 0 0 0 
0 0 0 0 0 0 0 0 0 
0 0 0 0 0 0 0 0 0 
0 0 0 0 0 0 0 0 0 
0 0 0 0 0 0 0 0 0 
0 0 0 0 0 0 0 0 0 
0 0 0 0 0 0 0 0 0 
0 0 0 0 0 4.47406e-12 0 0 0 
0 0 0 0 0 0 0 0 0 
0 0 0 0 0 0 0 0 0 
0 0 0 0 0 0 0 0 6.59003e-12 
0 0 0 1.52608e-12 5.00997e-13 0 0 0 0 
0 0 0 0 0 0 0 0 0 
0 0 0 0 0 0 0 1.2499e-13 0 
0 0 0 0 0 0 0 0 0 
0 0 0 0 0 0 0 0 0 
0 0 0 0 0 5.39345e-13 0 0 0 
0 0 0 0 0 2.37809e-12 0 0 0 
0 0 0 0 0 0 0 0 0 
4.1363e-13 0 0 0 0 0 0 0 0 
0 0 0 0 0 0 0 1.51355e-12 0 
0 0 0 0 0 0 0 0 0 
0 0 0 0 0 0 0 3.73254e-12 0 
0 0 0 0 0 0 0 0 0 
0 0 0 0 0 0 0 0 0 
0 0 0 0 0 0 0 0 0 
0 0 0 0 0 0 0 0 0 
0 0 0 0 0 0 0 0 0 
0 0 0 0 0 0 0 0 0 
0 0 0 0 0 0 0 0 0 
0 0 0 0 0 0 0 0 0 
0 0 0 0 0 0 0 0 0 
0 0 0 0 0 0 0 0 0 
0 0 0 0 0 0 0 0 0 
0 0 0 0 0 0 0 0 0 
0 0 0 0 0 0 0 0 0 
1.31957e-11 0 0 0 2.55095e-11 6.97681e-12 0 0 0 
0 0 0 0 0 0 0 0 0 
0 2.79991e-11 0 0 0 0 0 0 1.69885e-11 
0 0 0 0 0 0 0 0 0 
0 0 0 0 0 0 0 0 0 
0 0 0 0 0 0 0 0 0 
0 0 0 0 0 0 0 0 0 
0 0 0 0 0 0 0 0 0 
0 0 0 0 0 0 0 0 0 
0 0 0 0 0 0 0 0 0 
0 0 0 0 0 0 1.55351e-13 0 0 
0 0 0 0 0 0 0 0 0 
0 0 0 0 0 0 0 0 0 
0 0 0 0 0 0 0 0 0 
0 0 0 0 0 0 0 0 0 
0 4.42085e-12 0 0 0 0 0 0 0 
0 0 0 0 0 0 0 0 0 
0 0 0 0 0 0 0 0 0 
0 0 0 0 0 0 0 0 0 
0 0 0 0 0 0 5.3731e-12 0 0 
0 0 0 0 0 0 0 0 1.34333e-12 
0 0 0 0 0 0 0 0 0 
0 0 0 0 0 4.86449e-12 0 0 0 
0 0 0 0 0 0 0 0 0 
0 0 0 0 0 0 0 0 0 
0 0 0 0 0 0 0 0 0 
0 0 8.68545e-12 0 0 0 0 0 0 
0 0 0 0 0 2.25651e-11 1.8125e-11 0 0 
0 0 0 0 0 0 0 0 0 
0 0 0 0 0 0 0 0 0 
0 0 0 0 0 0 0 0 0 
1.46902e-11 0 0 0 0 2.1371e-11 0 1.87031e-12 0 
0 0 0 0 0 1.3418e-11 0 0 0 
0 0 0 0 0 0 0 0 0 
0 0 0 0 0 0 0 0 0 
0 0 0 0 0 0 0 0 0 
0 0 0 0 0 1.71357e-11 0 1.54325e-11 0 
0 0 0 0 0 0 0 0 3.57148e-13 
0 0 0 9.17075e-13 0 0 0 0 0 
0 0 0 0 0 0 0 0 0 
1.52017e-12 0 0 0 0 0 0 0 0 
0 0 0 0 0 0 0 0 0 
0 0 0 0 0 0 0 0 0 
0 0 0 0 0 0 0 8.77992e-12 0 
0 0 0 0 0 0 0 0 0 
0 0 0 0 0 0 0 0 0 
0 0 0 0 0 0 0 0 0 
0 0 0 0 0 0 0 0 0 
0 0 0 0 0 0 0 0 0 
0 0 0 0 0 0 0 0 0 
0 0 0 0 0 0 0 0 0 
0 0 0 0 0 0 0 0 0 
0 0 0 0 0 0 0 0 0 
0 0 0 0 0 0 0 0 0 
0 0 0 0 0 0 0 0 0 
0 0 0 0 0 1.81893e-11 0 2.69032e-11 0 
0 0 0 0 0 0 0 0 0 
0 0 0 0 2.64785e-11 0 3.48371e-11 0 0 
1.13696e-11 0 0 0 0 0 0 0 0 
2.9736e-11 0 0 0 0 0 0 0 0 
0 1.7596e-11 1.56166e-11 0 0 0 0 0 0 
0 0 0 0 0 0 0 0 0 
0 0 0 0 0 0 0 0 0 
0 0 0 0 0 0 6.24799e-12 0 0 
0 0 0 1.46016e-12 0 0 0 0 0 
0 0 0 0 0 0 0 0 0 
0 0 0 0 0 0 0 0 0 
0 0 0 0 0 0 0 0 0 
0 0 0 0 0 0 0 0 0 
0 0 0 0 0 0 0 0 0 
0 0 0 0 0 0 0 0 0 
0 0 2.48566e-12 0 5.54868e-13 0 0 0 0 
0 0 0 0 0 0 0 0 0 
0 0 0 0 0 0 0 0 0 
1.45471e-13 0 0 0 0 0 0 0 0 
0 0 0 0 0 0 0 0 0 
0 0 0 0 0 0 0 0 0 
0 0 1.48231e-12 0 0 0 0 0 0 
0 0 0 0 5.8908e-12 0 0 0 0 
0 0 0 0 0 0 0 0 0 
0 0 0 0 0 0 0 0 0 
0 0 1.40046e-11 1.70045e-11 0 0 0 1.15864e-11 0 
1.8191e-13 0 0 0 0 0 0 0 0 
0 2.28244e-11 0 0 0 0 0 0 0 
0 0 8.9706e-12 0 0 0 0 0 0 
0 0 0 0 0 0 0 0 0 
0 0 0 0 0 0 0 1.26929e-11 0 
0 0 0 0 0 0 0 0 0 
0 3.56826e-11 0 0 0 0 0 0 0 
1.57403e-11 0 0 0 0 0 0 0 0 
0 0 0 0 0 0 0 0 0 
5.61501e-12 0 0 0 0 0 0 1.33668e-11 0 
0 0 0 0 0 0 8.49205e-12 0 0 
0 0 0 0 0 0 0 0 0 
0 0 0 0 8.81592e-13 0 0 0 0 
0 0 0 0 0 0 0 0 0 
0 0 0 0 0 0 0 0 0 
0 0 0 0 0 0 0 0 0 
0 0 0 0 0 0 0 0 2.74976e-12 
0 0 0 1.18592e-11 0 0 0 0 0 
0 0 0 0 0 0 0 0 0 
0 0 0 0 0 0 0 0 0 
0 0 0 0 0 0 0 0 0 
0 0 1.47816e-12 0 0 0 0 0 0 
0 0 0 0 0 0 0 0 0 
0 0 0 0 0 0 0 0 0 
0 0 0 0 3.10038e-12 0 0 0 0 
0 0 0 0 0 0 0 0 0 
1.1167e-12 0 2.90533e-12 0 0 0 0 0 0 
0 0 0 0 0 0 0 0 0 
0 0 5.83776e-12 8.73833e-12 0 1.43051e-11 0 0 0 
4.18479e-11 0 4.55463e-11 0 0 0 0 0 0 
1.94987e-11 0 0 0 0 0 0 0 0 
0 2.70602e-11 0 0 0 0 0 0 0 
0 0 0 0 0 0 0 0 0 
0 0 0 0 0 0 0 0 0 
3.9689e-11 0 0 1.76125e-12 0 1.39948e-11 0 0 0 
0 0 0 0 0 9.96687e-13 6.13757e-12 0 0 
0 0 0 0 0 0 0 0 2.84739e-12 
3.03124e-11 0 0 0 0 0 0 0 0 
0 0 0 0 0 0 0 0 0 
0 0 0 0 0 0 9.25134e-12 0 0 
0 0 0 0 0 0 0 0 0 
0 0 0 0 0 0 0 0 0 
0 0 0 0 0 0 0 0 0 
0 0 0 0 0 0 0 0 0 
0 0 0 2.95865e-12 0 0 0 0 0 
0 0 0 0 0 0 0 0 0 
1.3497e-11 0 0 0 0 0 0 0 0 
0 0 0 0 0 0 0 0 0 
0 0 0 0 0 0 0 0 0 
0 0 0 0 0 0 0 0 0 
0 0 0 0 0 0 0 0 0 
0 0 0 0 0 0 0 0 0 
0 0 0 0 0 0 0 0 0 
0 0 0 0 0 0 8.0999e-12 0 0 
2.51926e-11 0 4.61998e-11 0 0 0 0 0 0 
0 0 0 0 0 0 0 0 0 
0 0 0 0 2.81426e-11 3.47314e-12 3.19292e-11 0 0 
2.12891e-11 2.63059e-11 0 0 0 4.41281e-11 0 0 0 
0 0 0 0 0 0 0 0 0 
0 0 0 2.85562e-11 6.7856e-11 0 0 2.85636e-11 0 
5.29568e-11 0 0 0 0 0 0 0 0 
0 4.14859e-11 0 0 0 0 0 0 0 
0 0 0 0 9.79263e-12 0 0 0 1.61625e-11 
0 0 0 0 0 0 0 0 0 
0 0 0 0 0 0 0 0 0 
0 0 0 5.62925e-11 2.20981e-11 0 0 0 0 
0 0 0 0 6.51219e-12 0 0 0 0 
0 1.7702e-11 0 0 0 0 0 0 0 
0 0 1.63505e-11 0 0 0 0 0 0 
1.37926e-12 0 0 0 0 0 0 0 0 
0 0 0 0 0 0 0 0 0 
0 0 0 0 0 0 0 0 0 
0 0 0 0 0 0 0 0 2.72396e-11 
0 0 0 0 0 0 0 0 0 
0 0 0 0 0 0 0 0 0 
0 0 0 0 0 0 0 8.15134e-13 0 
0 0 0 0 2.14819e-12 0 0 1.52471e-12 0 
0 0 0 0 0 0 0 0 0 
0 0 0 0 0 0 0 0 0 
0 0 0 0 0 0 0 0 0 
0 0 0 0 0 0 0 0 0 
0 0 0 0 0 0 0 0 0 
3.14674e-11 0 0 0 6.05148e-11 0 0 0 0 
0 0 0 0 0 0 0 0 0 
0 0 1.30337e-11 1.78276e-11 0 0 0 0 0 
0 0 0 0 2.87244e-11 0 0 0 0 
0 0 0 0 0 0 0 0 9.64699e-12 
1.73638e-11 0 5.97753e-11 1.02909e-10 0 0 0 0 0 
0 0 0 0 0 0 0 0 0 
4.20037e-11 5.49788e-11 0 0 6.21612e-11 0 1.99949e-11 0 0 
4.31865e-11 6.9085e-13 0 0 0 0 0 0 0 
0 0 0 0 2.13129e-11 0 0 0 0 
0 3.53984e-12 0 0 0 0 0 0 0 
0 0 0 6.4613e-12 4.9165e-11 0 0 1.00192e-11 0 
4.04615e-12 0 0 1.5292e-11 0 0 0 0 0 
0 0 0 0 0 0 0 0 0 
0 8.22177e-12 6.5421e-12 0 0 0 0 0 0 
0 3.09026e-11 0 0 0 0 0 0 1.69737e-12 
0 0 0 0 0 0 6.46098e-13 0 0 
0 0 0 0 0 0 0 3.52417e-12 0 
0 1.1802e-11 0 0 0 0 0 0 0 
0 0 0 0 4.49691e-12 0 0 0 0 
0 0 1.66454e-12 0 0 0 0 0 0 
0 0 0 0 0 0 0 0 0 
0 0 0 0 0 0 0 0 0 
0 0 0 0 0 0 0 0 0 
6.74367e-13 0 0 0 0 0 2.07638e-12 0 0 
0 0 0 0 0 0 0 0 0 
0 0 0 0 0 9.00265e-12 0 0 0 
0 0 0 0 1.34801e-11 0 0 0 0 
0 0 5.20592e-11 0 0 0 0 4.81045e-11 0 
0 0 0 0 0 1.38956e-11 0 0 0 
0 0 0 0 9.11899e-11 0 2.06926e-10 0 0 
0 0 4.9024e-11 3.90498e-11 1.84657e-11 0 0 3.00436e-11 0 
0 0 0 0 0 2.78588e-12 1.60778e-13 0 6.78502e-11 
0 0 0 0 0 0 8.27219e-11 0 0 
0 0 0 0 7.49541e-11 0 0 5.88816e-11 0 
0 0 0 0 0 2.45971e-11 0 7.51278e-13 0 
3.3003e-11 0 0 0 0 0 2.13746e-11 0 0 
0 0 0 0 0 0 0 0 1.85658e-12 
0 0 0 0 8.62985e-11 0 1.4017e-10 0 0 
0 3.8589e-11 0 0 0 0 3.06078e-11 0 0 
6.89875e-11 0 4.58556e-11 0 0 1.93375e-11 0 0 0 
0 0 0 0 1.94535e-11 0 0 0 0 
0 0 2.80335e-11 3.07993e-11 0 0 0 0 0 
0 3.56724e-12 0 0 0 0 0 0 0 
0 0 0 0 0 0 0 0 0 
2.08828e-13 0 0 0 0 0 0 0 0 
0 0 1.97705e-11 6.44667e-12 0 0 0 3.51788e-11 0 
0 0 0 0 0 0 0 0 0 
0 0 0 0 0 0 0 0 0 
0 0 0 0 0 0 0 0 0 
0 0 0 0 0 0 0 0 0 
0 0 2.20535e-12 0 0 0 0 1.78945e-12 0 
0 0 0 1.86163e-12 0 0 0 0 0 
0 0 0 0 0 0 0 3.67571e-11 0 
0 0 0 0 7.81054e-12 1.0519e-11 0 0 0 
0 0 0 0 0 5.04863e-11 0 0 0 
0 2.51601e-10 0 0 6.35811e-11 0 0 0 0 
1.68194e-12 0 0 1.73908e-11 0 0 0 2.65339e-12 0 
0 0 0 2.03389e-10 2.42311e-08 0 0 0 4.73061e-11 
0 2.67813e-11 0 0 0 0 0 0 0 
0 0 0 0 2.52499e-10 0 5.6938e-13 0 4.2592e-11 
0 9.31774e-12 0 2.34255e-11 0 0 0 0 6.48632e-11 
0 9.95377e-13 0 0 0 0 0 0 0 
0 0 0 0 0 2.29406e-12 0 0 3.93141e-11 
0 0 0 0 1.725e-11 0 0 0 2.3431e-12 
0 0 5.32708e-11 0 0 0 0 0 0 
0 0 6.26369e-11 7.27293e-11 0 0 5.47669e-13 0 0 
1.38124e-10 1.97973e-11 0 0 0 8.54757e-11 5.14509e-11 0 0 
9.1113e-13 0 0 0 0 0 0 0 0 
0 1.79854e-11 0 0 0 0 0 0 0 
1.41907e-11 0 0 0 7.83068e-13 2.50206e-11 0 0 0 
0 0 0 0 0 0 0 0 0 
0 0 0 0 0 0 1.04958e-12 1.05763e-11 0 
0 0 1.51075e-11 0 0 0 0 0 0 
0 0 0 7.64197e-11 0 3.80748e-11 0 0 0 
0 0 2.1243e-12 0 0 0 0 0 0 
0 0 0 0 0 0 0 0 0 
0 0 0 0 0 0 0 0 0 
0 0 0 0 0 0 0 0 0 
0 0 0 0 0 0 0 0 0 
0 0 0 0 0 0 0 0 0 
0 0 0 1.056e-13 1.91947e-11 6.56041e-12 0 0 6.4404e-11 
0 0 0 5.26099e-11 6.11493e-12 3.08215e-11 0 0 0 
0 2.96856e-12 0 0 0 0 0 0 0 
0 4.43017e-11 0 0 0 3.03781e-11 7.69809e-11 0 9.56888e-12 
0 1.19718e-11 0 0 1.01375e-11 2.0103e-11 4.53131e-11 0 0 
0 0 0 0 0 0 5.10003e-11 0 2.91436e-11 
0 0 0 0 0 0 0 2.66549e-11 6.07188e-11 
3.35932e-11 1.32845e-10 2.53267e-08 0 0 0 0 0 0 
1.93996e-11 0 0 0 2.63043e-08 0 0 1.27468e-10 0 
0 8.01369e-12 5.0741e-11 0 2.58235e-11 1.05678e-10 1.45096e-10 0 0 
0 0 0 5.0473e-11 3.54241e-11 9.87056e-12 0 0 0 
0 0 0 1.7912e-11 0 0 0 0 0 
8.01308e-12 0 1.20952e-10 6.0547e-11 0 0 0 0 0 
0 0 0 2.50845e-08 0 0 0 3.0129e-11 0 
8.23192e-11 0 0 1.79656e-10 5.29435e-11 0 0 6.80346e-11 8.79573e-11 
0 0 3.1503e-11 0 0 3.64131e-11 0 0 0 
0 4.61345e-11 0 0 2.20722e-11 0 0 0 0 
0 0 0 0 0 0 0 3.19729e-11 0 
0 0 0 0 0 0 0 0 0 
0 0 0 0 0 0 0 0 0 
0 0 0 0 0 0 2.20051e-12 0 6.769e-12 
0 0 0 0 0 0 0 0 0 
0 0 1.69564e-11 0 0 0 0 0 0 
0 0 0 0 0 0 0 0 0 
0 0 0 0 0 0 0 0 0 
0 0 0 0 0 0 0 0 0 
0 0 0 0 0 0 0 0 0 
0 0 0 0 0 0 0 0 0 
1.51276e-11 0 0 0 0 8.53746e-11 8.55606e-11 0 0 
0 1.66183e-11 0 0 0 1.342e-12 0 0 0 
0 0 0 0 0 1.27102e-11 0 0 0 
0 0 0 0 0 0 4.00775e-11 0 0 
0 0 0 0 1.71799e-11 0 7.44962e-11 8.68704e-11 0 
0 0 1.06425e-10 7.76519e-11 0 0 0 0 1.94907e-12 
1.90941e-14 0 0 0 1.14054e-12 4.27971e-11 0 0 0 
1.3396e-10 0 0 0 1.44799e-10 0 0 0 0 
2.94356e-11 0 1.78881e-10 0 0 0 0 0 6.1142e-11 
2.75241e-11 0 7.69925e-11 2.4739e-11 0 0 2.45414e-08 0 0 
3.63972e-11 0 0 0 0 1.40017e-11 2.33479e-11 0 0 
0 0 3.91069e-11 0 0 8.20466e-11 8.23334e-11 0 0 
9.99292e-11 7.93208e-11 3.04656e-11 0 0 0 0 0 1.33523e-10 
0 0 0 2.91667e-11 0 1.75254e-10 0 0 0 
1.1339e-10 0 0 0 5.48281e-11 6.59193e-11 0 8.07536e-12 0 
0 0 6.42823e-12 2.72859e-11 0 0 0 0 0 
0 0 0 0 0 3.45425e-11 0 9.06642e-11 0 
3.55697e-12 0 5.74876e-11 0 3.97352e-11 0 0 0 0 
0 0 0 0 0 0 0 0 0 
0 9.88433e-12 0 0 0 0 0 2.145e-11 0 
0 0 1.09767e-11 8.95273e-11 1.74433e-11 0 0 0 0 
0 5.48553e-11 0 3.60659e-11 3.73696e-11 0 0 0 1.31746e-11 
0 2.51656e-11 0 0 0 0 0 6.49913e-13 0 
0 0 0 0 8.54293e-13 0 0 0 0 
0 0 0 0 0 0 0 0 0 
0 0 0 0 0 0 0 0 0 
0 0 0 0 0 0 0 0 2.2419e-12 
0 0 0 0 0 0 0 0 0 
0 0 0 5.64836e-11 0 0 0 0 0 
0 0 0 4.77594e-11 4.70774e-11 0 0 0 0 
0 2.61599e-08 0 2.44126e-10 0 0 2.92732e-12 0 0 
0 1.34939e-10 0 0 0 0 0 0 0 
2.86784e-11 0 0 0 0 2.75042e-11 6.72836e-11 0 0 
0 0 2.5204e-13 0 1.14629e-11 0 0 0 0 
0 0 0 0 0 0 5.22721e-11 0 0 
0 0 9.52002e-11 1.32991e-12 3.69582e-11 0 0 0 0 
0 0 0 0 0 0 4.96196e-11 8.40013e-12 0 
0 1.23282e-10 0 0 0 0 3.70104e-10 0 0 
0 0 0 0 0 0 0 1.79942e-11 0 
0 0 0 0 0 2.23271e-10 0 0 6.06129e-11 
0 0 0 4.59275e-11 4.9566e-11 3.04376e-11 0 0 0 
1.31649e-10 0 0 0 0 0 2.71601e-08 2.68932e-10 0 
0 0 1.26708e-10 0 0 9.27498e-11 0 0 0 
1.36233e-11 0 0 0 0 1.13555e-11 0 0 0 
0 5.36884e-11 1.28668e-10 0 0 0 0 3.849e-11 6.46964e-11 
0 0 0 0 0 0 0 1.05764e-11 0 
0 0 0 0 2.7024e-12 0 0 0 0 
0 0 0 0 2.70542e-11 0 0 0 0 
1.85377e-12 0 7.3053e-11 0 0 0 0 0 0 
0 0 0 5.71079e-11 0 0 0 0 0 
0 0 4.48903e-12 0 0 4.30479e-12 0 0 0 
0 0 0 0 0 0 0 0 0 
0 0 0 3.83287e-12 0 0 0 0 0 
0 0 0 0 0 0 0 0 0 
0 0 0 0 0 0 0 0 0 
0 0 8.34291e-12 0 0 0 0 4.671e-11 0 
8.3261e-13 6.44486e-11 0 0 2.46167e-08 0 3.14511e-11 0 0 
3.45549e-11 0 3.27751e-11 0 0 0 0 0 0 
3.62772e-10 0 0 0 0 9.23591e-12 1.44755e-10 0 0 
1.48306e-10 0 0 0 8.59697e-11 5.73081e-12 0 0 0 
8.85091e-12 0 4.26694e-11 1.43337e-11 0 0 3.79138e-11 0 0 
0 0 0 2.20678e-11 0 1.92083e-11 0 2.752e-11 0 
0 0 0 0 0 2.50325e-10 0 0 0 
4.31381e-13 3.51135e-11 6.59612e-11 1.00974e-10 0 0 1.61746e-10 0 0 
4.50716e-11 0 0 9.78854e-13 0 0 1.03949e-10 1.0133e-10 0 
1.45104e-10 0 1.67543e-10 0 0 0 0 5.89499e-11 0 
0 0 2.21812e-11 0 0 0 0 0 0 
4.92446e-11 0 0 2.43613e-08 1.61765e-10 0 1.05728e-10 0 0 
0 0 0 6.58091e-13 0 1.10998e-10 0 0 0 
2.31676e-13 1.03305e-11 0 0 0 1.87781e-10 0 0 1.99817e-10 
0 0 0 0 0 0 7.35757e-11 0 3.54174e-11 
0 0 0 0 0 0 0 0 1.2464e-10 
0 0 0 6.73966e-11 1.68324e-10 0 0 0 0 
0 0 0 0 0 0 0 5.43393e-12 0 
0 0 0 0 0 0 0 0 2.76261e-12 
0 0 0 0 0 0 1.28404e-10 0 9.18974e-11 
0 0 0 2.48222e-08 0 1.28263e-12 0 0 7.09176e-11 
0 0 3.67996e-11 0 1.54771e-11 0 1.31572e-11 0 0 
0 1.28189e-11 0 0 0 0 0 2.19238e-12 0 
0 0 0 0 0 0 0 0 0 
0 0 0 0 0 0 0 0 0 
0 0 0 0 0 0 0 0 0 
0 0 0 0 0 0 0 0 0 
0 0 0 2.6254e-12 0 0 0 0 3.9978e-12 
0 1.77813e-10 9.01062e-11 1.26488e-10 3.18942e-11 0 0 0 0 
0 0 0 0 0 0 0 0 0 
2.29928e-10 0 0 1.82981e-11 0 1.19146e-10 1.5417e-10 4.84404e-11 0 
3.36342e-13 0 0 0 0 0 0 0 0 
2.86509e-11 0 0 0 0 4.05564e-11 0 6.92821e-11 0 
0 0 0 0 2.01858e-11 0 0 1.50353e-11 0 
6.83903e-11 0 0 0 1.58706e-10 0 4.24693e-11 0 0 
2.9461e-10 0 0 3.06338e-10 0 0 0 0 0 
0 0 0 4.30526e-11 0 5.72368e-11 0 0 2.36615e-10 
0 0 0 0 4.92665e-11 0 0 0 0 
0 0 0 0 0 0 0 0 1.36633e-11 
0 0 0 0 9.42179e-11 0 0 5.0008e-11 0 
7.18037e-11 0 0 3.93767e-11 0 0 0 0 1.12227e-10 
0 0 0 0 1.61675e-10 2.82933e-10 2.69532e-08 0 0 
0 7.00855e-12 0 0 0 6.82733e-11 0 0 0 
0 3.2435e-12 0 0 8.01095e-11 0 1.71085e-10 8.01216e-11 0 
0 0 0 0 0 5.50237e-11 0 0 0 
0 0 0 0 0 0 0 0 0 
0 1.07721e-12 0 0 0 0 1.27461e-11 0 0 
0 0 0 3.04285e-11 6.07572e-11 0 0 1.86689e-11 3.54451e-11 
0 0 0 0 0 9.35027e-12 0 7.25268e-11 4.84817e-11 
0 0 0 0 0 3.85651e-12 0 0 0 
0 1.41466e-11 0 0 0 0 0 0 0 
0 0 0 0 0 0 0 0 0 
0 0 0 0 0 0 0 0 0 
0 0 0 0 0 0 0 0 0 
0 0 0 0 0 0 0 0 0 
0 0 0 0 0 0 6.80264e-11 2.5004e-11 0 
1.1706e-10 2.27811e-11 2.70842e-11 0 0 0 3.55293e-12 0 2.01099e-10 
0 0 2.8941e-11 0 0 2.78482e-10 0 0 2.21594e-10 
0 0 0 0 2.66456e-08 0 0 4.4232e-11 0 
3.83255e-11 0 0 0 3.16461e-11 0 0 3.13816e-12 0 
0 0 0 0 0 0 0 0 0 
0 0 0 0 0 5.53165e-11 6.89151e-11 2.66417e-11 0 
0 0 0 0 0 0 0 0 0 
0 0 0 0 0 0 0 0 1.22684e-10 
0 1.61965e-11 1.87193e-10 1.10819e-10 7.61448e-12 0 1.9693e-11 0 0 
0 0 0 0 0 1.39519e-11 0 0 5.7677e-12 
0 0 0 9.86856e-11 0 0 0 0 3.06379e-11 
2.92651e-11 0 1.54062e-10 0 0 5.61812e-12 0 0 0 
0 8.49816e-11 0 0 0 0 0 1.34012e-10 0 
0 0 2.82285e-12 2.3337e-10 0 0 0 0 0 
0 0 0 0 0 5.41204e-11 0 0 0 
0 0 0 2.68747e-11 0 0 0 0 0 
0 0 0 4.96395e-11 5.52301e-11 1.05212e-10 8.79245e-11 0 0 
0 0 0 0 0 0 0 0 0 
0 0 0 3.75996e-11 0 0 0 0 0 
0 0 0 2.88901e-11 0 1.35593e-10 5.57818e-11 0 0 
0 1.97519e-10 0 0 0 0 0 0 0 
0 0 0 0 4.21412e-11 0 0 0 0 
0 0 0 0 0 0 0 0 0 
0 0 0 0 0 0 0 0 0 
6.68306e-13 0 0 0 0 0 0 0 0 
0 0 0 0 0 0 0 0 0 
0 0 0 9.22223e-13 0 0 1.30556e-12 0 0 
0 1.96971e-12 5.45334e-11 0 3.14223e-12 4.59279e-11 0 2.67906e-11 1.4537e-11 
0 0 0 0 0 0 0 0 0 
0 1.45285e-10 0 0 0 0 0 0 0 
0 6.6782e-11 2.65221e-10 0 0 1.03225e-10 0 0 0 
3.9903e-11 0 0 1.58223e-11 0 0 2.39973e-12 0 1.97442e-11 
0 0 0 0 0 0 3.56913e-11 0 0 
0 0 0 7.47087e-11 6.85762e-11 0 0 0 1.20162e-12 
1.72754e-10 0 0 3.00765e-08 0 0 0 3.45517e-08 0 
0 0 0 1.64199e-10 0 1.07574e-10 0 7.20721e-11 1.87861e-10 
1.77879e-11 2.3501e-11 8.30982e-11 0 0 0 0 6.69908e-11 0 
4.93598e-11 0 0 0 0 0 1.19344e-11 0 0 
0 0 0 0 0 0 0 0 0 
2.27166e-11 0 0 0 0 0 0 0 0 
0 0 0 1.43786e-11 0 0 0 6.50564e-11 0 
8.77317e-11 0 0 0 0 0 0 8.43737e-11 3.41305e-11 
0 0 0 0 0 0 1.60046e-10 0 0 
0 0 0 0 0 0 0 0 0 
0 0 0 0 0 7.44417e-11 6.71061e-11 0 0 
0 0 0 0 0 0 0 0 0 
0 3.98444e-11 0 6.15316e-11 0 0 0 0 0 
0 0 9.53886e-11 0 0 0 0 0 0 
0 0 5.39464e-11 6.90961e-11 2.92414e-11 1.0506e-10 0 5.99038e-11 1.49683e-10 
0 0 0 0 0 0 0 0 0 
0 0 0 0 0 0 0 0 0 
0 0 2.96128e-13 0 0 0 0 0 0 
0 0 0 0 0 0 0 0 0 
0 0 0 0 0 0 0 0 0 
0 0 0 0 0 0 0 0 0 
0 4.23075e-11 0 9.40829e-11 0 6.53216e-11 0 0 0 
0 0 0 1.22155e-10 3.81732e-11 4.26441e-11 2.21779e-11 1.00912e-10 0 
0 0 0 0 0 0 0 0 0 
0 0 0 0 0 7.53488e-12 0 0 0 
0 0 0 0 0 0 1.10601e-10 0 0 
0 0 8.00545e-11 0 0 0 1.14251e-11 0 0 
0 0 0 0 0 8.45323e-11 0 1.82549e-10 0 
0 0 2.64814e-10 0 0 0 0 0 0 
0 0 0 0 2.61417e-08 0 0 0 0 
0 0 0 0 0 0 0 0 0 
0 0 0 0 0 0 0 0 1.72601e-11 
0 0 0 0 1.4474e-11 0 0 0 6.20452e-11 
0 3.35041e-12 0 0 1.46649e-10 0 0 0 0 
5.73556e-11 0 0 0 0 0 1.1915e-10 0 8.68117e-11 
6.38744e-11 9.76521e-11 0 0 0 0 1.1838e-10 0 0 
1.08794e-10 2.48422e-08 0 0 0 0 4.30069e-11 0 0 
0 1.92147e-10 0 0 0 0 2.81927e-08 0 0 
7.37781e-11 0 0 0 0 0 0 0 0 
0 0 0 0 0 0 0 0 0 
0 4.67073e-11 0 0 0 1.02868e-10 5.96386e-11 0 0 
1.7464e-11 0 0 0 0 0 0 0 0 
0 0 0 0 0 0 0 0 7.76139e-11 
4.3508e-11 0 0 0 0 0 0 0 0 
0 0 0 0 0 0 0 0 0 
0 0 0 0 0 0 0 0 0 
0 0 0 0 0 0 0 0 0 
0 0 0 0 0 0 0 0 0 
0 0 0 0 0 0 2.92065e-11 0 0 
0 5.92585e-11 0 0 0 0 0 1.02169e-10 0 
4.01377e-10 0 0 0 3.33031e-11 7.9477e-11 0 0 0 
0 3.83142e-08 3.85168e-08 0 0 0 3.67899e-11 0 0 
0 0 7.41613e-11 1.21483e-11 0 0 0 0 0 
0 0 0 0 0 4.37814e-11 0 0 0 
0 0 2.94359e-11 0 0 0 0 0 0 
0 1.85823e-11 0 0 4.51451e-13 0 0 4.70854e-13 0 
0 0 0 0 3.31177e-08 0 0 2.19976e-10 0 
2.74564e-10 0 2.77832e-10 0 0 1.01653e-11 0 0 7.04408e-12 
0 0 0 0 0 4.66456e-11 0 0 0 
0 0 0 0 0 0 0 0 0 
0 8.84417e-11 0 0 0 0 0 0 0 
0 8.45941e-12 0 0 0 0 0 0 0 
0 0 0 1.12177e-10 0 0 0 1.64152e-10 0 
0 1.33385e-11 0 0 0 0 0 0 0 
0 7.29993e-11 1.99302e-13 0 1.02868e-10 5.3274e-11 0 2.21568e-10 0 
0 0 0 0 1.02362e-10 0 0 0 2.70457e-11 
0 0 0 0 0 0 0 0 0 
0 0 0 0 1.14454e-11 2.9143e-11 0 0 1.92327e-11 
0 0 0 0 2.64066e-10 0 0 1.44169e-10 0 
5.05605e-11 1.26147e-10 0 0 0 1.09808e-10 2.38899e-10 0 0 
0 0 0 0 0 0 0 0 1.34886e-11 
0 0 0 0 1.24519e-11 7.35789e-12 0 0 0 
0 0 0 0 0 0 0 0 0 
0 0 0 0 0 0 0 0 0 
0 0 0 0 0 0 0 0 0 
0 0 0 0 0 0 0 0 5.61226e-13 
0 0 0 0 1.97212e-11 0 0 0 0 
0 0 6.26519e-11 0 0 0 0 0 0 
0 5.1428e-12 0 0 5.42583e-11 0 8.65476e-11 0 0 
0 0 2.34938e-10 2.41701e-10 0 8.8854e-11 1.0921e-10 0 0 
0 0 2.57533e-11 0 0 0 0 0 0 
1.08816e-12 0 0 8.93021e-11 0 1.16113e-10 0 0 0 
0 0 0 0 0 0 0 0 0 
0 0 0 0 0 0 1.25022e-11 0 2.04435e-11 
0 4.99291e-10 0 0 0 6.1181e-11 0 2.11923e-11 0 
5.77127e-11 0 0 0 0 0 7.73458e-11 0 0 
0 9.61094e-11 0 0 5.46903e-11 0 0 4.34973e-11 0 
0 0 0 0 0 2.82898e-11 0 0 0 
0 0 0 0 3.54673e-12 0 0 0 0 
0 0 0 0 0 0 0 7.7979e-13 0 
0 4.00621e-11 5.24991e-11 0 0 0 0 0 0 
4.0967e-11 0 0 8.87829e-11 0 0 0 0 0 
0 0 8.62421e-13 0 0 2.40056e-11 0 0 0 
6.16442e-11 0 0 2.3047e-10 0 0 0 3.85816e-11 0 
0 0 0 0 0 0 0 0 0 
0 0 0 0 0 0 0 0 0 
1.92528e-10 1.75061e-10 2.66771e-08 0 0 1.99994e-10 0 0 3.61454e-12 
0 0 5.23183e-11 0 0 2.60307e-11 0 0 0 
0 0 0 2.05198e-11 0 0 0 0 0 
0 0 0 0 0 0 0 0 0 
0 0 0 0 0 0 0 0 0 
0 4.89202e-13 0 0 0 0 0 0 0 
0 0 0 0 0 0 0 0 0 
0 0 0 0 0 0 0 0 0 
0 0 0 0 0 0 0 5.89172e-11 0 
0 2.65401e-11 0 0 0 2.66749e-08 0 4.0126e-10 1.12133e-10 
0 0 0 0 2.89989e-10 3.05218e-10 0 0 0 
5.54146e-11 2.00746e-10 0 0 1.2167e-10 0 0 0 0 
0 0 0 0 0 0 0 0 0 
0 0 0 3.69022e-11 1.06354e-10 1.05093e-10 0 3.08486e-10 0 
0 1.82604e-11 0 0 0 0 5.93271e-11 0 0 
0 0 0 1.08363e-10 1.87356e-11 0 3.68498e-11 0 0 
0 0 4.83742e-11 0 1.01476e-10 6.53637e-12 1.27634e-11 0 1.16465e-12 
9.11554e-11 0 1.12611e-11 1.77298e-11 0 0 0 6.46359e-11 0 
0 0 0 0 0 0 0 0 0 
0 0 0 8.94183e-13 2.89388e-11 0 4.09082e-11 0 0 
0 0 0 0 0 0 0 0 0 
0 0 0 0 0 0 4.20832e-11 0 0 
0 0 1.26126e-10 0 0 0 0 2.96074e-12 0 
0 0 0 0 0 5.63055e-11 0 0 1.63758e-11 
3.60865e-13 0 0 0 0 0 0 0 1.97546e-10 
2.86133e-10 0 0 0 1.04307e-10 0 0 2.55629e-11 0 
1.73869e-11 0 0 0 0 0 0 0 0 
0 0 0 0 0 0 0 0 0 
1.10962e-10 8.98863e-11 7.20381e-11 0 0 0 0 0 0 
0 0 0 3.09566e-11 5.18605e-11 1.16252e-10 0 3.09432e-08 0 
0 0 0 0 0 0 0 0 0 
0 0 0 0 0 0 0 0 0 
0 0 0 0 0 0 0 0 0 
0 0 0 0 0 0 0 0 0 
0 0 0 0 0 0 0 0 0 
0 0 0 0 0 0 0 0 0 
0 0 0 0 0 0 0 2.48724e-10 4.08593e-11 