# vtk DataFile Version 5.1
vtk output
ASCII
DATASET STRUCTURED_POINTS
DIMENSIONS 250 250 1
SPACING 1 1 1
ORIGIN 0 0 0
POINT_DATA 62500
FIELD FieldData 6
feature_1 1 62500 float
0 0 0 0 0 0 0 0 0 
0 0 0 0 0 0 0 0 0 
0 0 0 0 0 0 0 0 0 
0 0 0 0 0 0 0 0 0 
0 0 0 0 0 0 0 0 0 
0 0 0 0 0 0 0 0 0 
0 0 0 0 0 0 0 0 0 
0 0 0 0 0 0 0 0 0 
0 0 0 0 0 0 0 0 0 
0 0 0 0 0 0 0 0 0 
0 0 0 0 0 0 0 0 0 
0 0 0 0 0 0 0 0 0 
0 0 0 0 0 0 0 0 0 
0 0 0 0 0 0 0 0 0 
0 0 0 0 0 0 0 0 0 
0 0 0 0 0 0 0 0 0 
0 0 0 0 0 0 0 0 0 
0 0 0 0 0 0 0 0 0 
0 0 0 0 0 0 0 0 0 
0 0 0 0 0 0 0 0 0 
0 0 0 0 0 0 0 0 0 
0 0 0 0 0 0 0 0 0 
0 0 0 0 0 0 0 0 0 
0 0 0 0 0 0 0 0 0 
0 0 0 0 0 0 0 0 0 
0 0 0 0 0 0 0 0 0 
0 0 0 0 0 0 0 0 0 
0 0 0 0 0 0 0 0 0 
0 0 0 0 0 0 0 0 0 
0 0 0 0 0 0 0 0 0 
0 0 0 0 0 0 0 0 0 
0 0 0 0 0 0 0 0 0 
0 0 0 0 0 0 0 0 0 
0 0 0 0 0 0 0 0 0 
0 0 0 0 0 0 0 0 0 
0 0 0 0 0 0 0 0 0 
0 0 0 0 0 0 0 0 0 
0 0 0 0 0 0 0 0 0 
0 0 0 0 0 0 0 0 0 
0 0 0 0 0 0 0 0 0 
0 0 0 0 0 0 0 0 0 
0 0 0 0 0 0 0 0 0 
0 0 0 0 0 0 0 0 0 
0 0 0 0 0 0 0 0 0 
0 0 0 0 0 0 0 0 0 
0 0 0 0 0 0 0 0 0 
0 0 0 0 0 0 0 0 0 
0 0 0 0 0 0 0 0 0 
0 0 0 0 0 0 0 0 0 
0 0 0 0 0 0 0 0 0 
0 0 0 0 0 0 0 0 0 
0 0 0 0 0 0 0 0 0 
0 0 0 0 0 0 0 0 0 
0 0 0 0 0 0 0 0 0 
0 0 0 0 0 0 0 0 0 
0 0 0 0 0 0 0 0 0 
0 0 0 0 0 0 0 0 0 
0 0 0 0 0 0 0 0 0 
0 0 0 0 0 0 0 0 0 
0 0 0 0 0 0 0 0 0 
0 0 0 0 0 0 0 0 0 
0 0 0 0 0 0 0 0 0 
0 0 0 0 0 0 0 0 0 
0 0 0 0 0 0 0 0 0 
0 5.86083e-13 0 0 0 0 0 0 0 
0 0 0 0 0 0 0 0 0 
0 0 0 0 0 0 0 0 0 
0 0 0 0 0 0 0 0 0 
0 0 0 0 0 0 0 0 0 
0 0 0 0 0 0 0 0 1.1195e-13 
0 0 0 0 0 0 0 0 0 
0 1.75723e-13 0 0 0 0 0 0 0 
0 0 0 0 0 0 0 0 0 
0 0 0 0 0 0 0 0 0 
0 0 0 0 0 0 0 0 0 
0 0 0 0 0 0 0 0 0 
0 0 0 0 0 0 0 0 0 
0 0 0 0 0 0 0 0 0 
0 0 0 0 0 0 0 0 0 
0 0 0 0 0 0 0 0 0 
0 0 0 0 0 0 0 0 0 
0 0 0 0 0 0 0 0 0 
3.36187e-12 0 0 0 0 0 0 0 0 
0 0 0 0 0 0 0 0 0 
0 0 0 0 0 0 0 0 0 
0 0 0 0 0 0 0 0 0 
0 0 0 0 0 0 0 0 0 
0 0 0 0 0 0 0 0 0 
0 0 0 0 0 0 0 0 0 
0 0 0 0 0 0 0 0 0 
0 0 0 0 0 0 0 0 0 
0 0 0 0 0 0 0 0 0 
0 0 0 0 0 0 0 0 0 
0 0 0 0 0 0 0 0 0 
0 0 0 0 0 0 0 0 0 
0 0 0 0 0 0 0 0 0 
0 0 0 0 0 0 0 0 0 
0 0 0 0 0 0 0 0 0 
0 0 0 0 0 0 0 0 0 
0 0 0 0 0 0 0 0 0 
0 0 0 0 0 0 0 0 0 
0 0 0 0 0 0 0 0 0 
0 0 0 0 0 0 0 0 0 
0 0 0 0 0 0 0 0 0 
0 0 0 0 0 0 0 0 0 
0 0 0 0 0 0 0 0 2.91163e-13 
0 0 0 0 0 0 0 0 0 
0 0 0 0 0 0 0 0 0 
0 0 0 0 0 0 0 0 0 
0 0 0 0 0 0 0 0 0 
0 0 0 0 0 0 0 0 0 
0 0 0 0 0 1.26458e-12 0 0 0 
0 0 0 0 0 0 0 0 0 
0 0 0 0 0 0 0 0 0 
0 0 0 0 0 0 0 0 0 
0 0 0 0 0 0 0 0 0 
0 0 0 0 0 0 0 0 0 
0 0 0 0 0 0 0 0 0 
0 0 0 0 0 0 0 0 0 
0 0 0 0 0 0 0 0 0 
0 0 0 0 0 0 0 0 0 
0 0 0 0 0 0 0 0 0 
0 0 0 0 0 0 0 0 0 
0 0 0 0 0 0 0 0 0 
0 0 0 0 0 0 0 0 0 
0 0 0 0 0 0 0 0 0 
0 0 0 0 0 0 0 0 0 
0 0 0 0 0 0 0 0 0 
0 0 0 0 0 0 0 0 0 
0 0 0 0 0 0 0 0 0 
0 0 0 0 0 0 0 0 0 
0 0 0 0 0 0 0 0 0 
0 0 0 0 0 0 0 0 0 
0 0 0 0 0 0 0 0 0 
0 0 0 0 0 0 0 0 0 
0 0 0 0 0 0 0 0 0 
0 0 0 0 0 0 0 0 0 
0 0 0 0 0 0 0 0 0 
2.19716e-12 0 0 0 0 6.74781e-13 0 0 0 
0 0 0 0 0 0 0 0 0 
0 0 0 0 0 0 0 0 0 
0 0 9.77655e-14 0 0 0 0 0 0 
0 0 0 0 0 7.32347e-13 0 0 0 
0 0 0 0 0 0 0 0 0 
0 0 0 0 0 0 0 0 0 
0 0 0 0 0 0 0 0 0 
0 0 0 0 0 0 0 0 0 
0 0 0 0 0 0 0 0 0 
0 0 0 0 0 0 0 0 0 
0 0 0 0 0 0 0 0 0 
0 0 0 0 0 0 0 0 0 
0 0 0 0 0 0 0 0 0 
0 0 0 0 0 0 0 0 0 
0 0 0 0 0 0 0 0 0 
0 0 0 0 0 0 0 0 0 
0 0 0 0 0 0 0 0 0 
0 0 0 0 0 0 0 0 0 
0 0 0 0 0 0 0 0 0 
0 0 0 0 0 0 0 0 7.30627e-13 
0 0 0 0 0 0 0 0 0 
0 0 0 0 0 7.59493e-13 0 0 0 
0 0 0 0 0 0 0 0 0 
0 0 0 0 0 0 0 0 0 
0 0 0 0 0 0 0 0 0 
0 0 0 0 0 0 0 0 0 
0 0 0 0 0 0 0 0 0 
0 0 0 0 0 0 0 0 0 
0 0 0 0 0 0 0 0 0 
0 0 0 0 0 0 0 0 0 
0 0 0 0 0 0 0 0 0 
0 0 0 0 0 0 0 0 0 
0 0 0 0 0 0 0 0 0 
0 0 0 0 0 0 0 0 0 
0 0 0 0 0 0 0 0 0 
0 0 0 0 0 0 0 0 0 
0 0 0 0 0 0 0 0 0 
0 0 0 0 0 0 0 0 0 
0 0 0 0 0 0 0 0 0 
0 0 0 0 0 0 0 0 0 
0 0 0 0 0 0 0 0 0 
0 0 0 0 0 0 0 0 0 
0 0 0 0 0 0 0 0 0 
0 0 0 0 0 0 0 0 0 
0 0 0 0 0 0 0 0 0 
0 0 0 0 0 0 0 0 0 
0 0 0 0 0 0 0 0 0 
0 0 0 0 0 0 0 0 0 
0 0 0 0 0 0 0 0 0 
0 0 0 0 0 0 0 0 0 
0 0 0 0 0 0 0 0 0 
0 0 0 0 0 0 0 0 0 
0 0 0 0 0 0 0 0 0 
0 0 0 0 0 0 0 0 0 
0 0 0 0 0 0 0 0 0 
0 0 0 0 0 0 0 0 0 
0 0 0 0 0 0 0 0 0 
0 0 0 0 0 0 0 0 0 
0 0 0 0 0 0 0 0 0 
0 0 0 0 0 0 0 0 0 
0 0 0 0 0 0 0 0 0 
0 0 0 0 0 0 0 0 0 
0 0 0 0 0 0 0 0 0 
0 0 0 0 0 0 0 0 0 
0 0 0 0 0 0 0 0 0 
0 0 0 0 0 0 0 0 0 
0 0 0 0 0 0 0 0 0 
0 0 0 0 0 0 0 0 0 
0 0 0 0 0 0 0 0 0 
0 0 0 0 0 0 0 0 0 
0 0 0 0 0 0 0 0 0 
0 0 0 0 0 0 0 0 0 
0 0 0 0 0 0 0 0 0 
0 0 0 0 0 0 0 0 0 
0 0 0 0 0 0 0 0 0 
0 0 0 0 0 0 0 0 0 
0 0 0 0 0 0 0 1.85545e-12 0 
0 0 0 0 0 0 0 0 0 
0 0 0 0 0 0 0 0 0 
0 0 0 0 0 0 0 0 0 
0 0 0 0 0 0 0 0 0 
0 0 0 0 0 0 0 0 0 
0 0 0 0 0 0 0 0 0 
0 0 0 0 0 0 0 0 0 
0 0 0 0 0 0 0 0 0 
0 0 0 0 0 0 0 0 0 
0 0 0 0 0 0 0 0 0 
0 0 0 0 0 0 0 0 0 
0 0 0 0 0 0 0 0 0 
0 0 0 0 0 0 0 0 0 
0 0 0 0 0 0 0 0 0 
0 0 0 0 0 0 0 0 0 
0 0 0 0 0 0 3.64247e-13 0 0 
0 0 0 0 5.12689e-13 0 0 0 0 
0 0 0 0 0 0 0 0 0 
0 0 0 0 0 0 0 0 0 
0 0 0 0 0 0 0 0 0 
0 0 0 0 0 0 0 0 0 
0 0 0 0 0 0 0 0 0 
0 0 0 0 0 0 0 0 0 
0 0 0 0 0 0 0 0 0 
0 0 0 0 0 0 0 0 0 
0 0 2.98843e-13 0 4.40162e-13 0 0 0 0 
0 0 0 0 0 0 0 0 0 
0 0 0 0 0 0 0 0 0 
0 0 0 0 0 0 0 0 0 
0 0 0 0 0 0 0 0 0 
0 0 0 0 0 0 0 0 0 
0 0 0 0 0 0 0 0 0 
0 0 0 0 0 0 0 0 0 
0 0 0 0 0 0 0 0 0 
0 0 0 0 0 0 0 0 0 
0 0 0 0 0 0 0 0 0 
0 0 0 0 0 0 0 0 0 
0 8.46924e-13 0 0 0 0 0 0 0 
2.13127e-12 0 0 0 0 0 0 0 0 
0 0 0 0 0 0 0 0 0 
0 0 0 0 0 0 0 0 0 
0 0 0 0 0 0 0 0 0 
0 0 0 0 0 0 0 0 0 
0 0 0 0 0 0 0 0 1.77798e-13 
0 0 0 0 0 0 0 0 0 
0 0 0 0 0 0 0 0 0 
0 0 0 0 0 0 0 0 0 
0 0 0 0 0 0 0 0 0 
0 0 0 0 0 0 0 0 0 
0 0 0 0 0 0 0 0 0 
0 0 0 0 0 0 0 0 0 
0 0 0 0 0 0 0 0 7.95314e-13 
0 0 0 0 0 0 0 0 0 
0 0 0 0 0 0 0 0 0 
0 0 0 0 0 0 0 0 0 
0 0 0 0 0 0 0 0 0 
0 0 0 0 0 0 0 0 0 
0 0 0 0 0 0 0 0 0 
0 0 0 0 0 0 0 0 0 
0 0 0 0 0 0 0 0 0 
0 0 0 0 0 0 0 0 0 
0 0 0 0 0 0 0 0 0 
0 0 0 0 0 0 0 0 0 
0 0 0 0 0 0 0 0 0 
0 0 0 0 0 0 0 0 0 
0 0 0 0 0 0 0 0 0 
0 0 0 0 0 0 0 0 0 
0 0 0 0 0 0 0 0 0 
0 0 0 0 0 0 0 0 0 
0 0 0 0 0 0 0 0 0 
0 0 0 0 0 0 0 0 0 
0 0 1.02738e-12 0 0 0 0 0 0 
0 0 0 0 0 0 0 0 0 
0 0 0 0 0 0 0 0 0 
0 0 0 0 0 0 0 0 0 
0 0 0 0 0 0 0 0 0 
0 0 0 0 0 0 0 0 0 
0 0 0 0 0 0 0 0 0 
0 0 0 0 0 0 0 0 0 
0 0 0 0 0 0 0 0 0 
0 0 0 0 0 0 0 0 0 
0 0 0 0 0 0 0 0 0 
0 0 0 0 0 0 0 0 0 
0 0 0 0 0 0 0 0 0 
0 0 0 0 0 0 0 0 0 
0 0 0 0 0 0 0 0 0 
0 0 0 0 0 0 0 0 0 
0 0 0 0 0 0 0 0 0 
0 0 0 0 0 0 0 0 0 
0 0 0 0 0 0 0 0 0 
0 0 0 0 0 0 0 0 0 
0 0 0 0 0 0 0 0 0 
0 0 0 0 0 0 0 0 0 
0 0 0 0 0 0 0 0 0 
0 0 0 0 0 0 0 0 0 
0 0 0 0 0 0 0 0 0 
0 0 0 0 0 0 0 0 0 
0 0 0 0 0 0 0 0 0 
0 0 0 0 0 0 0 0 0 
0 0 0 0 0 0 0 0 0 
0 0 0 0 0 0 0 0 0 
0 0 0 0 0 0 0 0 0 
0 0 0 0 0 0 0 0 0 
0 0 0 0 0 5.63157e-13 0 0 0 
0 0 0 0 0 0 0 0 0 
0 0 0 0 0 0 0 0 0 
0 0 0 0 0 0 0 0 0 
0 0 0 0 0 0 0 0 0 
0 0 0 0 0 0 0 0 0 
0 0 0 0 0 0 0 0 0 
0 0 0 0 0 0 0 0 0 
0 0 0 0 0 0 0 0 0 
0 0 0 0 0 0 0 0 0 
0 0 0 0 0 0 0 0 0 
0 0 0 0 0 0 0 0 0 
0 0 0 0 0 0 0 0 0 
0 0 0 0 0 0 0 0 0 
0 0 0 0 0 0 0 0 0 
0 0 0 0 0 0 0 0 0 
0 0 0 0 0 0 0 0 0 
0 0 0 0 0 0 0 0 0 
0 0 0 0 0 0 0 0 0 
0 0 0 0 0 0 0 0 0 
0 0 0 0 0 0 0 0 0 
0 0 0 0 0 0 0 0 0 
0 0 0 0 0 0 0 0 0 
0 0 0 0 0 0 0 0 0 
0 0 0 0 0 0 0 0 0 
0 0 0 0 0 0 0 0 0 
0 0 0 0 0 0 0 0 0 
0 0 0 0 0 0 0 0 0 
0 0 0 0 0 0 0 0 0 
0 0 0 0 0 0 0 0 0 
0 0 0 0 0 0 0 0 0 
0 0 0 0 0 0 0 0 0 
0 0 0 0 0 0 0 0 0 
0 0 0 0 0 0 0 0 0 
0 0 0 0 0 0 0 0 0 
0 0 0 0 0 0 0 0 0 
0 0 0 0 0 0 0 0 0 
0 0 0 0 0 0 0 0 0 
0 0 0 0 0 0 0 0 0 
0 0 0 0 0 0 0 0 0 
0 0 0 0 0 0 0 0 0 
0 0 0 0 0 0 0 0 0 
0 0 0 0 0 0 0 0 0 
0 0 0 0 0 0 0 0 0 
0 0 0 0 0 0 0 0 0 
0 0 0 0 0 0 0 0 0 
0 0 0 0 0 0 0 0 0 
0 0 0 0 0 0 0 0 0 
0 0 0 0 0 0 0 0 0 
0 0 0 0 0 0 0 0 0 
0 0 0 0 0 0 0 0 0 
0 0 0 0 0 0 0 0 0 
0 0 0 0 0 0 0 0 0 
0 0 0 0 0 0 0 0 0 
0 0 0 0 0 0 0 0 0 
0 0 0 0 0 0 0 0 0 
0 0 0 0 0 0 0 0 0 
0 0 0 0 0 0 0 0 0 
0 0 0 0 0 0 3.44109e-13 0 0 
0 0 0 0 0 0 0 0 0 
0 0 0 0 0 0 0 0 0 
0 0 0 0 0 0 0 0 0 
0 0 0 1.64374e-13 0 0 0 0 0 
0 0 0 0 0 0 0 0 0 
0 0 0 0 0 0 0 0 0 
0 0 0 0 0 0 0 0 0 
0 0 0 0 0 0 0 0 0 
0 0 0 0 0 0 0 0 0 
0 0 0 0 0 0 0 0 0 
0 0 0 0 0 0 0 0 0 
0 0 0 0 0 0 0 0 0 
0 0 0 0 0 0 0 0 0 
0 0 0 0 0 0 0 0 0 
0 0 0 0 0 0 0 0 0 
0 0 0 0 0 0 0 0 0 
0 0 0 0 0 0 0 0 0 
0 0 0 0 0 0 0 0 0 
0 0 0 0 0 0 0 0 0 
0 0 0 0 0 0 0 0 0 
0 0 0 0 0 0 0 0 0 
0 0 0 0 0 0 0 0 0 
0 0 0 0 0 0 0 0 0 
0 0 0 0 0 0 0 0 0 
0 0 0 0 0 0 0 0 0 
0 0 0 0 0 0 0 0 0 
0 0 0 0 0 0 0 0 0 
0 0 0 0 0 0 0 0 0 
0 0 0 0 0 0 0 0 0 
0 0 0 0 0 0 0 0 0 
0 0 0 0 0 0 0 0 0 
0 0 0 0 0 0 0 0 0 
0 0 0 0 0 0 0 0 0 
0 0 0 0 0 0 0 0 0 
0 0 0 0 0 0 0 0 0 
0 0 0 0 0 0 0 0 0 
0 0 0 0 0 0 0 0 0 
0 0 0 0 0 0 0 2.11536e-13 0 
0 0 0 0 0 0 0 0 0 
0 0 0 0 0 0 0 0 0 
0 0 0 0 0 0 0 0 0 
0 0 0 0 0 0 0 0 0 
0 0 0 0 0 0 0 0 0 
0 0 0 0 0 0 0 0 0 
0 5.28564e-13 0 0 0 0 0 0 0 
0 0 0 0 0 0 0 0 0 
0 0 0 0 0 0 0 0 0 
0 0 0 0 0 0 0 0 0 
0 0 0 0 0 0 0 0 0 
0 0 0 0 0 0 0 0 0 
2.36446e-12 0 0 0 0 0 0 0 0 
0 0 0 0 0 0 0 0 0 
0 0 0 0 0 0 0 0 0 
0 0 0 0 0 0 0 0 0 
0 0 0 0 0 0 0 0 0 
0 0 0 0 0 0 0 0 0 
0 0 0 0 0 0 0 0 0 
0 0 0 0 0 0 0 0 0 
0 0 0 0 0 0 0 0 0 
0 0 0 0 0 0 0 0 0 
0 0 0 0 0 0 0 0 0 
1.53291e-12 0 0 0 0 0 0 0 0 
0 0 0 0 0 0 0 0 0 
0 0 0 0 0 0 0 0 0 
0 0 0 0 0 0 0 0 0 
0 0 0 0 0 0 0 0 0 
0 0 0 0 0 0 0 0 0 
0 0 0 0 0 0 0 0 0 
0 0 0 0 0 0 0 0 0 
0 0 0 0 0 0 0 0 0 
0 0 0 0 0 0 0 0 0 
0 0 0 0 0 0 0 0 0 
0 0 1.0065e-12 0 0 0 0 0 0 
0 0 0 0 4.66658e-13 0 0 0 0 
0 0 0 0 0 0 0 0 0 
0 0 0 0 0 0 0 0 0 
0 0 0 0 0 0 0 0 0 
0 0 0 0 0 0 0 0 0 
0 0 0 0 0 0 0 0 0 
0 0 0 0 0 0 0 0 0 
0 0 0 0 0 0 0 0 0 
0 0 0 0 0 0 0 0 0 
0 0 0 0 1.33417e-12 0 0 0 0 
0 0 0 0 0 0 0 0 0 
0 0 0 0 0 0 0 0 0 
0 0 0 0 0 0 0 0 0 
0 0 0 0 0 0 0 0 0 
0 0 0 0 0 0 0 0 0 
0 0 0 0 0 0 0 0 0 
0 0 0 0 0 0 0 0 0 
0 0 0 0 0 0 0 0 0 
0 0 0 0 0 0 0 0 0 
0 0 0 0 0 0 0 0 0 
0 0 0 0 0 0 0 0 0 
0 0 0 0 0 0 0 0 0 
0 0 0 0 0 0 0 0 0 
0 0 0 0 0 0 0 0 0 
0 0 0 0 0 0 0 0 0 
0 0 0 0 0 0 0 0 0 
0 0 0 0 0 0 0 0 0 
0 0 0 0 0 0 0 0 0 
0 0 3.3628e-12 0 0 0 0 0 0 
0 0 0 0 0 0 0 0 0 
0 0 0 0 0 0 0 0 0 
0 0 0 0 0 0 0 0 0 
0 0 0 0 0 0 0 0 0 
0 0 0 0 0 0 0 0 0 
0 0 0 0 0 0 0 0 0 
0 0 0 0 0 0 0 0 0 
0 0 0 0 1.42454e-13 0 0 0 0 
0 0 0 0 0 0 0 0 0 
0 0 0 2.42919e-12 0 0 0 0 0 
0 0 0 0 0 0 0 0 0 
0 0 0 0 0 0 0 0 0 
0 0 0 0 0 0 0 0 0 
0 0 0 0 0 0 0 0 0 
0 0 0 0 0 0 0 0 0 
0 0 0 0 0 0 0 0 0 
0 0 0 0 0 0 0 0 0 
0 0 0 0 0 0 0 0 0 
0 0 0 0 0 0 0 0 0 
0 0 0 0 0 0 0 0 0 
0 0 0 0 0 0 0 0 0 
0 0 0 0 0 0 0 0 0 
0 0 0 0 0 0 0 0 0 
0 0 0 0 0 0 0 0 0 
0 0 0 0 0 0 0 0 0 
0 0 0 0 0 0 0 0 0 
0 0 0 0 0 0 0 0 0 
0 0 0 0 0 0 0 0 7.41114e-12 
0 0 0 0 0 0 0 0 0 
0 0 0 0 0 0 0 0 0 
0 0 0 4.15295e-12 0 0 0 0 0 
0 0 0 0 0 0 0 0 0 
0 0 0 1.00543e-11 0 0 0 0 0 
0 0 0 0 0 0 0 0 0 
0 0 0 0 0 0 0 0 0 
0 0 3.65368e-12 0 0 0 0 0 0 
0 0 0 0 0 0 0 0 0 
0 0 0 0 0 0 0 0 0 
0 0 0 0 0 0 0 0 0 
0 0 0 0 0 0 0 0 0 
0 0 0 0 0 0 0 0 0 
0 0 0 0 0 0 0 0 0 
0 0 0 0 0 0 0 0 0 
0 0 0 0 0 0 0 0 0 
0 0 0 0 0 0 0 0 0 
0 0 0 0 0 0 0 0 0 
0 0 0 0 0 0 0 0 0 
0 0 0 0 0 0 0 0 0 
0 0 0 0 0 0 0 0 0 
0 0 0 0 0 0 0 0 0 
0 0 0 0 0 0 0 0 0 
0 0 0 0 0 0 0 0 0 
0 0 0 0 0 0 0 0 0 
0 0 0 0 0 0 0 0 0 
0 0 0 0 0 2.47064e-12 0 0 0 
0 0 0 0 0 0 0 0 0 
0 3.56785e-13 0 0 0 0 0 0 0 
0 0 0 0 0 0 0 0 3.80683e-12 
0 0 0 8.20977e-13 0 0 0 0 0 
0 0 0 0 0 0 0 0 0 
0 0 0 0 0 0 0 4.94014e-13 0 
0 0 0 0 0 0 0 0 0 
0 0 0 0 0 0 0 0 0 
0 0 0 0 0 0 0 0 0 
0 0 0 0 0 2.71899e-12 0 0 0 
0 0 0 0 0 0 0 0 0 
0 0 0 0 0 0 0 0 0 
0 0 0 0 0 0 0 0 0 
0 0 0 0 0 0 0 0 0 
0 0 0 0 0 0 0 0 0 
0 0 0 0 0 0 0 0 0 
0 0 0 0 0 0 0 0 0 
0 0 0 0 0 0 0 0 0 
0 0 0 0 0 0 0 0 0 
0 0 0 0 0 0 0 0 0 
0 0 0 0 0 0 0 0 0 
0 0 0 0 1.656e-12 0 0 0 2.17404e-13 
0 0 0 0 0 0 0 0 0 
0 0 0 0 0 0 0 0 0 
0 0 0 0 0 0 0 0 0 
0 0 0 0 0 0 0 0 0 
0 0 0 0 0 0 0 0 0 
0 0 0 0 0 0 0 0 0 
1.395e-11 0 0 0 3.00026e-11 8.1559e-12 0 0 0 
0 0 0 0 0 0 0 0 0 
0 2.08679e-11 0 0 0 0 0 0 1.96366e-11 
0 0 0 0 0 0 0 0 0 
0 0 0 0 0 0 0 0 0 
0 0 0 0 0 0 0 0 0 
0 0 0 0 0 0 0 0 0 
0 0 0 0 0 0 0 0 0 
0 0 0 0 0 0 0 0 0 
0 0 0 0 0 0 0 0 0 
0 0 0 0 0 0 0 0 0 
0 0 0 0 0 0 0 0 0 
0 0 0 0 0 0 0 0 0 
0 0 0 0 0 0 0 0 0 
0 0 0 0 0 0 0 0 0 
0 0 0 0 0 0 0 0 0 
0 0 0 0 0 0 0 0 0 
0 0 1.58029e-13 0 0 0 0 0 0 
0 0 0 0 0 0 0 0 0 
0 0 0 0 0 0 0 0 0 
0 2.39581e-12 0 0 0 0 0 0 0 
0 0 0 0 0 0 0 0 0 
0 0 0 0 0 0 0 0 0 
0 0 0 0 0 0 0 0 0 
0 0 0 0 0 0 0 0 0 
0 0 0 0 0 0 0 0 0 
0 0 9.25851e-12 0 0 0 0 0 0 
0 0 0 0 0 1.44133e-11 8.78973e-12 0 0 
0 0 0 0 0 6.66187e-13 0 0 0 
0 0 0 0 0 0 0 0 0 
0 0 0 0 0 0 0 0 0 
5.42678e-12 0 0 0 0 2.5192e-11 0 0 0 
0 0 0 0 0 9.86487e-12 0 0 0 
0 0 0 0 0 0 0 0 0 
0 0 0 0 0 0 0 0 0 
0 0 0 0 0 0 0 0 0 
0 0 0 0 0 9.95761e-12 0 1.84606e-11 0 
0 0 0 0 0 0 0 1.92548e-12 0 
0 0 0 0 0 0 0 0 0 
0 0 0 0 0 0 0 0 0 
0 0 0 0 0 0 0 0 0 
0 0 0 0 0 0 0 0 0 
0 0 0 0 0 0 0 0 0 
0 0 0 0 0 0 0 2.23301e-12 0 
0 0 0 0 0 0 0 0 1.43969e-12 
0 0 0 0 0 0 0 0 0 
0 0 0 0 0 0 0 0 0 
0 0 0 0 0 0 0 0 0 
0 0 0 0 0 0 0 0 0 
0 0 0 0 0 0 0 0 0 
0 0 0 0 0 0 0 0 0 
0 0 0 0 0 0 0 0 0 
0 0 0 0 0 0 0 0 0 
0 0 0 0 0 0 0 0 0 
0 0 0 0 0 0 0 0 0 
0 0 0 0 0 1.50804e-11 0 3.05386e-11 0 
0 0 0 0 0 0 0 0 0 
0 0 0 0 2.54769e-11 0 2.77119e-11 0 0 
4.18419e-12 0 0 0 0 0 0 0 0 
3.11574e-11 0 0 0 0 0 0 0 0 
0 1.44603e-11 2.15903e-11 0 0 0 0 0 0 
0 0 0 0 0 0 0 0 0 
0 0 0 0 5.33821e-12 0 0 0 0 
0 0 0 0 0 0 6.06984e-12 0 0 
0 0 0 0 0 0 0 0 0 
0 0 0 0 0 0 0 0 0 
0 0 0 0 0 0 0 0 0 
0 0 0 0 0 0 0 0 0 
0 0 0 0 0 0 0 0 0 
0 0 0 0 0 0 0 0 0 
0 0 0 0 0 0 0 0 0 
0 0 7.98525e-12 0 0 0 0 0 0 
0 0 0 0 0 0 0 0 0 
0 0 0 0 0 0 0 0 0 
0 0 0 0 0 0 0 0 0 
0 0 0 0 0 0 0 0 0 
0 0 0 0 0 0 0 0 0 
0 0 2.17484e-12 0 0 0 0 0 0 
0 0 0 0 5.59502e-12 0 0 0 0 
0 0 0 0 0 0 0 1.30738e-12 0 
0 0 0 0 0 0 0 0 0 
0 0 7.09423e-12 2.04569e-11 0 0 0 8.69701e-12 0 
0 0 0 0 0 0 0 0 0 
0 2.37183e-11 0 3.3843e-12 0 0 8.55882e-13 0 0 
0 0 7.18894e-12 0 0 0 0 0 0 
0 0 0 0 0 1.59446e-12 0 0 0 
0 0 0 0 0 0 0 1.05272e-11 0 
0 0 0 0 0 0 0 0 0 
0 3.72652e-11 0 0 0 0 0 0 0 
7.71517e-12 0 0 0 0 0 0 0 0 
0 0 0 0 0 0 0 0 0 
9.52786e-12 0 0 0 0 0 0 7.47732e-12 0 
0 0 0 0 0 0 9.56662e-12 0 0 
0 0 0 0 0 0 0 0 0 
0 2.36168e-12 0 0 0 0 0 0 0 
0 0 0 0 0 0 0 0 0 
0 0 0 0 0 0 0 0 0 
0 0 0 0 0 0 0 0 0 
0 0 0 0 0 0 0 0 4.21553e-12 
0 0 0 1.77602e-11 0 0 0 0 0 
0 0 0 0 0 0 0 0 0 
0 6.75776e-13 0 0 0 0 0 0 0 
0 0 0 0 1.28845e-12 0 0 0 0 
0 0 0 0 0 0 0 0 0 
0 0 0 0 0 0 0 0 0 
0 0 0 0 0 0 0 0 0 
0 0 0 0 0 0 0 0 0 
0 0 0 0 0 1.71089e-12 0 0 0 
0 0 0 0 0 0 0 0 0 
0 0 0 0 0 0 0 0 0 
0 0 1.63235e-11 1.2727e-11 0 1.72497e-11 0 0 0 
4.34267e-11 0 3.44174e-11 0 0 0 0 0 0 
2.49976e-11 0 0 0 0 0 0 0 0 
0 3.20411e-11 0 0 0 0 0 5.42673e-11 0 
0 0 0 0 0 0 0 0 0 
0 0 0 0 0 0 0 0 0 
4.00135e-11 0 0 1.03157e-11 0 1.20067e-11 0 0 0 
0 0 0 0 0 0 5.34283e-12 0 0 
0 0 0 0 0 0 0 0 0 
2.93988e-11 0 0 0 0 0 0 0 0 
0 0 0 0 0 0 0 0 0 
0 0 0 1.36929e-11 0 0 1.34995e-11 0 0 
0 0 0 0 0 0 0 0 0 
0 0 0 0 0 0 0 0 0 
0 0 0 0 0 0 0 0 0 
0 0 0 0 0 0 0 0 0 
0 0 0 1.83419e-12 0 0 0 0 0 
0 0 0 0 0 0 0 0 0 
8.76484e-12 0 0 0 0 0 0 0 0 
0 0 0 0 0 0 0 0 0 
0 0 0 0 0 0 0 0 0 
0 0 0 0 0 0 0 0 0 
0 0 0 0 0 0 0 0 0 
0 0 0 0 0 0 0 0 0 
0 0 0 0 0 0 0 0 0 
0 0 0 0 0 0 7.63088e-12 0 0 
2.9447e-11 0 4.07492e-11 0 0 0 0 0 0 
0 0 0 0 0 0 0 0 0 
0 0 0 0 2.52858e-11 0 2.9293e-11 0 0 
2.37364e-11 2.65813e-11 0 0 0 3.80325e-11 0 0 0 
0 0 0 0 0 0 0 0 0 
0 0 0 1.96987e-11 7.10968e-11 0 0 2.5996e-11 0 
4.799e-11 0 0 0 0 0 0 0 0 
0 3.69669e-11 0 5.04867e-11 0 0 0 0 0 
0 0 0 0 1.73145e-11 0 0 0 1.31275e-11 
0 0 0 0 0 0 0 2.75291e-13 0 
0 0 0 0 0 0 0 0 0 
0 0 0 5.58024e-11 2.29358e-11 0 0 0 0 
0 0 0 0 7.86088e-12 0 0 0 0 
0 6.01732e-12 0 0 0 0 0 0 0 
0 0 1.66871e-11 0 0 0 0 0 0 
0 0 0 0 0 0 0 0 0 
0 0 0 0 0 0 0 0 0 
0 0 0 0 0 0 0 0 0 
0 0 0 0 0 0 0 0 2.98477e-11 
0 0 0 0 0 0 0 0 0 
0 0 0 0 0 0 0 0 0 
0 0 0 0 0 0 0 0 0 
0 0 0 0 0 0 0 1.48324e-12 0 
0 0 0 0 0 0 0 0 0 
0 0 0 0 0 0 0 0 0 
0 0 0 0 0 0 0 0 0 
0 0 0 0 0 0 0 0 0 
0 0 0 0 0 0 0 0 0 
3.67687e-11 0 0 0 5.15382e-11 0 0 0 0 
0 0 0 0 0 0 0 0 0 
0 0 1.56131e-11 2.1762e-11 0 0 0 0 0 
0 0 0 0 2.03015e-11 0 0 0 0 
0 0 0 0 0 7.79966e-11 0 0 6.7149e-12 
2.13212e-11 0 6.48018e-11 1.03709e-10 0 0 0 0 0 
0 0 0 0 0 0 7.29694e-14 0 0 
4.64317e-11 5.04643e-11 0 0 6.29557e-11 0 0 0 0 
3.71801e-11 0 1.21293e-12 0 0 1.87793e-12 0 0 0 
0 0 0 0 2.56187e-11 0 0 7.01398e-13 1.07288e-12 
0 7.98081e-12 0 0 0 0 0 0 0 
0 0 0 0 4.7484e-11 0 0 1.37678e-11 0 
9.72638e-12 0 0 1.95683e-11 0 0 0 0 0 
0 0 0 0 0 0 0 0 0 
0 1.09238e-11 1.50833e-12 0 0 0 0 0 0 
0 2.8058e-11 0 0 0 0 0 0 0 
0 0 0 0 0 0 0 0 0 
0 0 0 0 0 0 0 7.97283e-12 0 
0 1.36338e-11 0 0 0 0 0 0 0 
0 0 0 0 3.8532e-12 0 0 0 0 
0 0 0 0 0 0 0 0 0 
0 0 0 0 0 0 9.8122e-13 0 0 
1.99713e-12 0 0 0 0 0 0 0 0 
0 0 0 0 0 0 0 0 0 
0 0 0 0 0 0 0 0 0 
0 0 0 0 0 0 0 0 0 
0 0 0 0 0 1.08718e-11 0 0 0 
0 4.82099e-12 0 0 1.56556e-11 0 0 0 0 
0 0 4.40142e-11 0 0 0 0 4.92331e-11 0 
0 0 0 0 0 1.56037e-11 0 0 0 
0 0 0 0 8.78541e-11 0 2.02205e-10 0 0 
0 0 5.13643e-11 3.76053e-11 1.93374e-11 0 0 3.31464e-11 0 
0 0 0 0 0 5.75785e-12 0 0 7.83861e-11 
0 0 0 2.37054e-13 0 0 7.88242e-11 0 0 
0 0 0 0 7.24811e-11 0 0 5.48699e-11 0 
0 0 0 0 0 2.60346e-11 0 0 0 
3.55737e-11 0 0 0 0 0 2.3607e-11 0 0 
0 0 0 8.05151e-13 0 0 0 0 5.46333e-11 
0 0 0 0 8.33092e-11 0 1.2823e-10 0 0 
0 3.07696e-11 0 0 0 1.54155e-12 3.01957e-11 0 0 
6.04997e-11 0 4.66053e-11 0 0 2.42692e-11 0 0 0 
0 0 0 0 1.84844e-11 0 0 3.61163e-11 0 
0 0 2.54152e-11 3.04456e-11 0 0 0 0 0 
0 0 0 0 0 0 0 0 0 
0 0 0 0 0 0 0 0 0 
0 0 0 0 0 0 0 0 0 
0 0 1.62052e-11 2.6296e-12 0 0 0 2.95679e-11 0 
0 0 0 0 0 0 0 0 0 
0 0 0 0 0 0 0 0 0 
0 0 0 0 0 0 0 0 0 
0 0 0 0 0 0 0 0 0 
0 0 0 0 0 0 0 0 0 
0 0 0 0 0 0 0 0 0 
0 0 0 0 0 0 0 3.94884e-11 0 
0 0 0 0 8.04718e-12 3.03376e-13 0 0 0 
0 0 0 0 0 4.38446e-11 0 0 0 
0 2.4022e-10 0 0 6.53047e-11 0 0 0 0 
7.64468e-13 0 0 1.13443e-11 0 0 0 0 0 
0 0 0 2.01215e-10 2.43314e-08 0 0 0 4.63952e-11 
0 2.96715e-11 0 0 0 0 0 0 0 
0 0 0 0 2.46465e-10 0 4.66954e-13 0 3.43953e-11 
0 1.15722e-11 0 2.12674e-11 0 0 0 0 5.95783e-11 
0 0 0 0 0 0 0 0 0 
0 0 0 0 0 0 0 0 4.03587e-11 
0 0 2.08873e-11 0 1.35134e-11 0 0 0 0 
0 0 4.57641e-11 0 0 0 0 0 0 
0 0 6.14826e-11 6.85935e-11 0 0 0 0 0 
1.23456e-10 1.483e-11 0 0 0 9.58448e-11 5.17797e-11 0 0 
0 0 0 0 0 0 0 0 0 
0 1.98494e-11 0 0 0 0 0 0 0 
1.9961e-11 0 0 0 0 2.26294e-11 0 0 0 
0 0 0 0 0 0 0 0 0 
0 0 0 0 0 0 0 1.12302e-11 0 
0 0 1.58778e-11 0 7.98301e-13 3.52355e-11 0 0 0 
0 0 0 7.29932e-11 0 3.32305e-11 0 0 0 
0 0 0 0 0 0 7.85996e-12 0 0 
0 0 0 0 0 0 0 0 0 
0 0 0 0 0 0 0 0 0 
0 0 0 0 0 0 0 0 0 
0 0 0 0 0 0 0 0 0 
0 0 0 0 0 0 0 0 0 
0 0 0 0 1.74214e-11 1.18415e-11 0 0 6.49537e-11 
0 0 0 4.64679e-11 4.31931e-12 3.11788e-11 0 0 0 
0 0 0 0 0 0 0 0 0 
0 3.97672e-11 0 0 0 2.41077e-11 7.66203e-11 0 9.34072e-12 
0 1.71048e-11 0 0 6.70508e-12 2.1493e-11 4.7855e-11 0 0 
0 0 0 1.85573e-10 0 0 4.47685e-11 0 2.13637e-11 
0 0 0 0 0 0 0 2.08457e-11 5.26381e-11 
3.03276e-11 1.30629e-10 2.54851e-08 0 0 0 0 0 0 
2.75728e-11 0 0 0 2.64921e-08 0 0 1.35076e-10 0 
0 6.95551e-13 5.74971e-11 0 2.38696e-11 1.06542e-10 1.37135e-10 0 0 
0 0 0 4.79988e-11 3.02214e-11 1.40171e-11 0 0 0 
0 0 0 1.89628e-11 0 0 0 0 0 
7.86988e-12 0 1.09468e-10 5.88452e-11 0 0 0 0 0 
0 0 0 2.52239e-08 0 0 0 2.3255e-11 0 
8.50995e-11 0 0 1.80322e-10 5.84793e-11 0 0 6.50888e-11 7.72883e-11 
0 0 2.79984e-11 0 0 4.30088e-11 0 0 0 
0 4.32731e-11 0 0 2.35517e-11 0 0 0 0 
0 0 0 0 0 0 0 2.58391e-11 0 
0 0 0 0 0 0 0 0 0 
0 0 0 0 0 0 5.94286e-12 0 0 
0 0 0 0 0 0 0 0 3.00402e-12 
0 0 0 0 0 0 0 0 0 
0 0 1.14409e-11 0 0 0 0 0 0 
0 0 0 0 0 0 0 0 0 
0 0 0 0 0 0 0 0 0 
0 0 0 0 0 0 0 0 0 
0 0 0 0 0 0 0 0 0 
0 0 0 0 0 0 0 0 0 
1.47786e-11 0 0 0 0 8.20711e-11 8.35551e-11 0 0 
0 2.23737e-11 0 0 0 0 0 0 0 
0 0 0 0 0 9.18191e-12 0 0 0 
0 0 0 0 0 0 4.07809e-11 0 0 
0 0 0 0 1.02752e-11 1.78816e-12 7.61113e-11 8.48353e-11 0 
0 0 1.01619e-10 7.68869e-11 7.16218e-12 0 0 0 0 
0 0 0 0 0 4.63268e-11 0 0 0 
1.32019e-10 0 0 0 1.40015e-10 0 0 0 0 
3.23748e-11 0 1.74695e-10 0 0 0 0 0 5.59564e-11 
3.04279e-11 0 7.57938e-11 2.03018e-11 0 0 2.46606e-08 0 0 
3.37521e-11 0 0 0 0 9.67647e-12 0 0 0 
0 0 4.68127e-11 0 0 8.48292e-11 7.28723e-11 0 0 
1.06428e-10 7.43473e-11 2.7482e-11 0 7.56624e-11 0 0 0 1.37082e-10 
0 0 0 2.95154e-11 0 1.72348e-10 0 0 0 
1.0898e-10 0 0 0 5.08639e-11 5.88655e-11 0 9.40386e-12 0 
0 0 1.19765e-11 2.62874e-11 0 0 0 0 0 
0 0 0 0 0 2.36782e-11 0 8.62097e-11 0 
0 0 5.28433e-11 0 7.84043e-11 0 0 0 0 
0 0 0 0 0 0 0 0 0 
0 1.22735e-11 0 0 0 0 0 0 0 
0 0 1.4122e-11 9.05315e-11 1.76409e-11 0 0 0 0 
0 5.61787e-11 0 3.53352e-11 3.46661e-11 0 0 0 8.79994e-12 
0 2.03878e-11 0 0 0 0 0 0 0 
0 0 0 0 0 0 0 0 0 
0 0 0 0 0 0 0 0 0 
0 0 0 0 0 0 0 0 0 
0 0 0 0 0 0 0 0 0 
0 0 0 0 0 0 0 0 0 
0 3.61739e-12 0 5.22021e-11 0 0 0 0 0 
0 0 0 4.45494e-11 4.71872e-11 0 0 0 0 
0 2.63394e-08 0 2.38315e-10 0 0 1.16511e-11 0 0 
0 1.26949e-10 5.50848e-12 0 0 0 0 0 4.28965e-11 
3.18524e-11 0 0 0 0 2.04538e-11 6.61798e-11 0 0 
0 0 0 0 1.34748e-11 0 0 0 0 
0 0 0 0 0 0 5.1121e-11 0 0 
0 0 9.07345e-11 0 3.15436e-11 0 0 0 0 
0 0 0 0 0 0 4.80347e-11 5.94937e-12 0 
0 1.29395e-10 0 0 0 0 3.55462e-10 0 0 
0 0 0 0 0 0 0 1.96198e-11 0 
0 0 0 0 0 2.17544e-10 0 0 5.42089e-11 
0 0 0 3.14913e-11 5.14586e-11 2.34988e-11 0 0 0 
1.31752e-10 0 0 0 0 2.95176e-10 2.73371e-08 2.57045e-10 0 
0 0 1.23359e-10 0 0 9.04524e-11 0 0 0 
6.28882e-12 0 0 0 0 6.20643e-12 0 0 0 
0 5.23463e-11 1.19786e-10 0 0 0 0 4.30623e-11 6.28717e-11 
0 0 0 0 0 0 0 9.45144e-12 0 
0 0 0 0 9.57881e-12 0 0 0 0 
0 0 0 0 3.39212e-11 0 0 0 0 
0 0 6.70924e-11 0 7.20071e-13 2.39217e-10 0 0 0 
0 0 0 5.54975e-11 0 0 0 0 0 
0 0 2.23785e-12 0 0 3.52613e-12 0 0 0 
0 0 0 0 0 0 0 0 0 
0 0 0 0 0 0 0 0 0 
0 0 0 0 0 0 0 0 0 
0 0 0 0 1.68129e-12 0 0 0 0 
0 0 6.78821e-12 0 0 0 0 4.68235e-11 0 
0 7.31849e-11 0 0 2.47337e-08 0 3.3416e-11 0 0 
3.89122e-11 0 3.41932e-11 0 0 0 0 0 0 
3.57622e-10 0 0 0 0 1.90682e-11 1.38489e-10 0 0 
1.50292e-10 0 0 0 8.88977e-11 1.15647e-11 0 0 0 
0 0 4.11174e-11 1.70917e-11 0 0 3.84248e-11 0 0 
0 0 0 1.8329e-11 0 1.89625e-11 0 2.46539e-11 0 
0 0 0 0 0 2.44505e-10 2.07375e-10 0 0 
0 3.14262e-11 6.30935e-11 9.50208e-11 0 0 1.59988e-10 0 0 
3.45856e-11 0 0 0 0 0 1.01141e-10 9.85816e-11 0 
1.37108e-10 0 1.61848e-10 0 0 1.01174e-10 0 5.91055e-11 0 
0 0 1.63087e-11 0 0 0 0 0 0 
3.94579e-11 0 0 2.44713e-08 1.554e-10 0 1.04194e-10 0 0 
0 0 0 0 0 1.07885e-10 0 0 1.44783e-10 
0 1.04023e-11 0 0 0 1.86474e-10 0 0 1.97018e-10 
0 0 0 0 0 0 1.65679e-10 0 3.64898e-11 
0 0 0 0 0 0 0 0 1.1526e-10 
0 0 0 6.75056e-11 1.5792e-10 0 0 0 0 
0 0 0 0 0 0 0 7.07321e-12 0 
0 0 0 0 0 0 0 0 4.46179e-12 
0 0 0 0 0 0 1.2165e-10 0 8.17924e-11 
0 0 0 2.49556e-08 0 0 0 0 6.73347e-11 
0 0 4.05219e-11 0 1.75155e-11 0 7.67332e-12 0 0 
0 9.31951e-12 0 0 0 0 0 0 0 
0 0 0 0 0 0 0 0 0 
0 0 0 1.05569e-14 0 0 0 0 0 
0 0 0 0 0 0 0 0 0 
0 0 0 0 0 0 0 0 0 
0 0 0 0 0 0 0 0 4.74956e-13 
0 1.75826e-10 8.04192e-11 1.29351e-10 3.12009e-11 0 0 0 0 
0 0 0 0 0 0 0 0 0 
2.15009e-10 0 0 1.15419e-11 0 1.11874e-10 1.4329e-10 5.11552e-11 0 
0 0 0 0 0 0 0 0 0 
3.22084e-11 0 0 0 0 3.52881e-11 0 7.65056e-11 0 
0 0 0 0 2.44536e-11 0 0 2.5453e-11 0 
6.37468e-11 0 0 0 1.56605e-10 0 4.04993e-11 0 0 
2.91759e-10 0 0 2.99304e-10 0 0 0 0 0 
0 0 0 3.9451e-11 0 6.57335e-11 0 0 2.30983e-10 
0 0 0 0 4.89213e-11 4.81976e-12 0 0 0 
0 0 0 0 0 0 0 0 1.50114e-11 
0 0 0 0 9.85374e-11 0 0 4.20375e-11 0 
6.82786e-11 0 0 3.35955e-11 0 0 0 0 9.69108e-11 
0 0 0 0 1.55961e-10 2.75388e-10 2.71309e-08 0 0 
0 9.58601e-12 0 0 0 7.0331e-11 0 0 0 
1.01663e-12 4.8567e-12 0 1.80263e-12 7.20717e-11 0 1.6919e-10 7.54986e-11 0 
0 0 0 0 0 4.85088e-11 0 0 0 
0 0 0 0 0 0 0 0 0 
0 0 4.57614e-13 0 0 0 6.2187e-12 0 0 
0 0 0 2.56393e-11 5.65414e-11 0 0 2.09076e-11 3.31799e-11 
0 0 0 0 0 1.15986e-11 0 6.29986e-11 4.07428e-11 
0 0 0 0 0 7.67965e-12 0 0 0 
0 1.48049e-11 0 0 0 0 0 0 0 
0 0 0 0 0 0 0 0 0 
0 0 0 0 0 0 0 0 0 
0 0 0 0 0 0 0 0 0 
0 0 0 0 0 0 0 0 0 
0 0 0 2.01228e-12 0 0 6.33877e-11 1.78e-11 0 
1.11226e-10 2.27164e-11 3.35795e-11 0 0 0 5.36385e-12 0 1.90365e-10 
0 0 2.12601e-11 0 0 2.70396e-10 0 0 2.114e-10 
0 0 2.14967e-14 0 2.68247e-08 0 0 3.65569e-11 0 
4.33971e-11 0 0 0 7.02416e-11 0 0 0 0 
0 0 0 0 0 0 0 0 0 
0 0 2.90862e-12 0 0 6.71617e-11 7.1869e-11 2.16402e-11 0 
0 0 0 0 0 0 0 0 0 
0 0 0 0 0 0 0 0 1.24949e-10 
0 1.40165e-11 1.80087e-10 1.08292e-10 1.62453e-12 0 1.91667e-11 0 0 
0 0 0 0 0 1.67049e-11 0 0 1.42677e-12 
0 0 0 9.04988e-11 0 0 0 0 3.53428e-11 
2.88312e-11 0 1.51603e-10 0 0 7.29509e-12 0 0 0 
0 8.73746e-11 0 0 0 0 0 1.29574e-10 0 
0 0 0 2.31133e-10 0 0 0 0 0 
0 0 0 0 0 4.60933e-11 0 0 0 
0 0 0 3.46504e-11 0 0 0 0 0 
0 0 0 5.17347e-11 5.88034e-11 9.81706e-11 8.18793e-11 0 0 
0 0 0 0 0 0 0 0 0 
0 0 0 3.18003e-11 0 0 0 0 0 
0 0 0 3.86055e-11 0 1.37913e-10 5.0082e-11 0 0 
0 1.8845e-10 0 0 0 0 0 0 0 
0 0 0 0 3.97076e-11 0 0 0 0 
0 0 0 0 0 0 0 0 0 
0 0 0 0 0 0 0 0 0 
0 0 0 0 0 0 0 0 0 
0 0 0 0 0 0 0 0 0 
0 0 0 0 0 0 2.90237e-13 0 0 
0 0 5.58476e-11 0 0 5.65544e-11 0 3.21004e-11 1.299e-11 
0 0 0 0 0 0 0 0 0 
0 1.4147e-10 0 0 0 0 0 0 0 
0 6.85896e-11 2.5067e-10 0 0 9.32585e-11 0 0 0 
4.08863e-11 0 0 1.4305e-11 0 0 0 0 1.48309e-11 
0 0 0 0 0 0 2.68627e-11 0 7.05851e-11 
0 0 0 7.26995e-11 6.73818e-11 0 0 0 0 
1.7093e-10 0 0 3.03428e-08 0 0 1.1012e-12 3.48549e-08 0 
0 0 0 1.59108e-10 0 1.06036e-10 0 7.23673e-11 1.73285e-10 
1.26492e-11 2.09384e-11 7.89798e-11 0 0 0 0 6.50656e-11 0 
5.27043e-11 0 0 0 0 0 1.42588e-11 0 0 
0 0 0 0 0 0 0 0 1.58327e-12 
2.24014e-11 0 0 0 7.95791e-11 0 0 0 6.10172e-11 
0 0 0 1.39683e-11 0 0 0 5.53455e-11 0 
8.06602e-11 0 0 0 0 0 0 8.86875e-11 3.84869e-11 
0 0 0 0 0 0 1.57911e-10 0 0 
0 0 0 0 0 0 0 0 0 
0 0 0 0 0 7.27465e-11 6.72514e-11 0 0 
0 0 0 0 1.14421e-11 0 0 0 0 
0 3.91477e-11 0 6.02793e-11 0 0 0 0 0 
0 0 9.65104e-11 0 0 0 0 0 0 
0 0 4.4373e-11 6.20778e-11 2.33484e-11 9.65948e-11 0 5.11798e-11 1.36097e-10 
0 0 0 0 0 0 0 0 0 
0 0 0 0 0 0 0 0 0 
0 0 0 0 0 0 0 0 0 
0 0 0 0 0 0 0 0 0 
0 0 0 0 0 0 0 0 0 
0 0 0 0 0 0 0 0 0 
0 4.58488e-11 0 9.21488e-11 0 5.81725e-11 0 0 0 
0 0 0 1.12998e-10 4.74704e-11 4.39134e-11 2.27345e-12 1.00498e-10 0 
0 0 0 0 0 0 0 0 0 
0 0 0 0 0 7.31803e-12 0 0 0 
0 0 0 0 0 0 1.01824e-10 0 0 
0 0 8.2334e-11 0 0 0 1.02908e-11 0 0 
0 0 0 0 0 8.03914e-11 0 1.74695e-10 0 
0 0 2.4506e-10 0 0 0 0 0 0 
0 0 8.9493e-13 0 2.63304e-08 0 0 0 0 
0 0 0 0 0 0 0 0 0 
0 0 0 0 0 0 0 0 1.00653e-11 
0 0 0 0 2.55026e-11 0 0 0 6.19177e-11 
0 2.1561e-12 0 0 1.34422e-10 0 0 0 0 
6.05447e-11 0 0 0 0 0 1.0666e-10 1.49031e-13 8.07724e-11 
5.53003e-11 9.29525e-11 0 0 0 0 1.24299e-10 0 0 
1.07285e-10 2.4975e-08 0 5.05702e-13 0 1.20383e-10 4.80133e-11 0 0 
0 1.92482e-10 0 0 0 0 2.83849e-08 0 0 
6.59479e-11 0 0 0 0 0 0 0 0 
0 0 0 0 0 0 0 0 0 
0 4.93577e-11 0 0 0 9.98221e-11 6.01244e-11 0 0 
1.40208e-11 0 0 0 0 0 0 0 0 
0 0 0 0 0 0 0 0 7.38802e-11 
4.2035e-11 0 0 0 0 0 0 0 0 
0 0 0 0 0 0 0 0 0 
0 0 0 0 0 0 0 0 0 
0 0 0 0 0 0 0 0 0 
0 0 0 0 0 0 0 0 0 
0 0 0 0 0 0 2.03937e-11 0 0 
0 5.82536e-11 0 0 0 0 0 9.22235e-11 0 
3.9672e-10 0 0 0 2.69916e-11 8.13516e-11 0 0 0 
0 3.85867e-08 3.8794e-08 0 0 0 3.11994e-11 0 0 
0 0 6.93394e-11 5.93324e-12 0 0 0 0 0 
0 0 8.5985e-11 0 0 4.72929e-11 0 0 0 
0 0 2.11535e-11 0 0 0 0 0 0 
0 2.09455e-11 0 0 2.79398e-12 0 0 0 0 
0 0 0 0 3.34012e-08 0 0 2.1773e-10 0 
2.61078e-10 0 2.69207e-10 0 0 1.01153e-11 0 0 9.91149e-12 
0 0 0 0 0 5.49189e-11 0 0 0 
0 0 0 0 0 0 0 0 0 
0 8.23522e-11 0 0 0 0 0 0 0 
0 8.10144e-12 0 0 0 0 0 0 0 
0 0 0 1.15905e-10 0 0 0 1.5489e-10 0 
0 7.66166e-12 1.27238e-13 0 0 0 0 0 0 
0 6.97605e-11 5.72096e-12 0 1.05715e-10 5.56757e-11 0 2.19319e-10 0 
0 0 0 0 9.73185e-11 0 0 0 2.69465e-11 
0 0 0 0 0 0 0 0 0 
0 0 0 0 1.67314e-11 1.68951e-11 0 0 2.2869e-11 
0 0 0 0 2.58741e-10 0 0 1.37031e-10 0 
4.41535e-11 1.27492e-10 0 0 0 1.12558e-10 2.29001e-10 0 0 
0 0 0 0 0 0 0 0 1.66055e-11 
0 0 0 0 1.37251e-11 7.75575e-12 0 2.57437e-12 0 
0 0 0 0 0 0 0 0 0 
0 0 0 0 0 0 0 0 0 
0 0 0 0 0 0 0 0 0 
0 0 0 0 0 0 0 0 0 
0 0 0 0 2.0314e-11 0 0 0 0 
0 0 6.13644e-11 0 0 0 0 0 0 
0 9.54115e-12 0 0 5.01614e-11 0 8.93514e-11 0 0 
0 0 2.27126e-10 0 0 8.98774e-11 1.06454e-10 0 0 
0 0 2.65988e-11 0 0 0 0 0 0 
3.05357e-12 0 0 8.73667e-11 0 1.10299e-10 0 0 0 
0 0 0 0 0 0 0 0 0 
0 0 0 0 0 0 6.92313e-12 0 1.99122e-11 
0 4.83048e-10 0 0 0 6.20282e-11 0 2.00404e-11 0 
5.13962e-11 0 0 0 0 0 7.59794e-11 0 0 
0 9.45422e-11 0 0 5.35492e-11 0 0 4.20921e-11 0 
0 0 0 0 0 3.01808e-11 0 0 0 
0 0 0 0 8.2374e-12 0 0 0 0 
0 0 0 0 0 0 0 0 0 
0 3.80684e-11 5.31955e-11 0 0 0 0 0 0 
3.93024e-11 0 0 8.57356e-11 0 0 0 0 0 
0 0 0 0 0 2.35706e-11 0 5.99025e-11 0 
5.60208e-11 0 0 2.13875e-10 0 0 0 4.26612e-11 0 
6.15912e-12 0 0 0 0 0 0 0 0 
0 0 0 0 0 0 0 0 0 
1.98645e-10 1.72116e-10 2.68648e-08 0 0 1.9436e-10 0 0 0 
0 0 5.03229e-11 0 0 2.15309e-11 0 0 0 
0 0 0 1.61538e-11 0 0 0 0 0 
0 0 0 0 0 0 0 0 0 
0 0 0 0 0 0 0 0 0 
0 0 0 0 0 0 0 0 0 
0 0 0 0 0 0 0 0 0 
0 0 0 0 0 0 0 0 0 
0 0 0 0 0 0 0 5.16998e-11 0 
0 2.8779e-11 0 0 0 2.68503e-08 0 3.89201e-10 1.08139e-10 
0 0 0 0 2.78068e-10 2.907e-10 0 0 0 
5.55251e-11 2.01507e-10 0 0 1.1903e-10 0 0 0 0 
0 0 0 0 0 0 0 0 0 
0 0 0 3.45471e-11 1.06541e-10 1.01176e-10 0 3.00184e-10 0 
0 2.48417e-11 0 0 0 0 6.05219e-11 0 0 
0 0 0 1.08359e-10 2.55124e-11 0 4.12089e-11 0 0 
0 0 4.48074e-11 0 1.0068e-10 9.34759e-12 8.4899e-12 0 0 
8.81159e-11 0 6.12817e-12 1.23173e-11 0 0 0 6.12006e-11 0 
0 0 0 0 0 0 0 0 0 
0 0 0 0 3.25268e-11 0 4.16622e-11 0 0 
0 8.6031e-13 0 0 0 0 0 0 0 
0 0 0 0 1.56189e-12 0 4.50465e-11 0 0 
0 0 1.22838e-10 0 0 0 0 5.09647e-12 0 
0 0 0 0 0 5.25389e-11 0 0 1.02076e-11 
1.36226e-10 0 0 0 0 1.49631e-12 0 0 1.85448e-10 
2.72059e-10 0 0 0 9.58569e-11 0 0 2.36771e-11 0 
2.10844e-11 0 0 0 0 0 0 0 0 
0 0 4.29812e-13 0 0 0 0 0 0 
1.13067e-10 8.04826e-11 7.27541e-11 0 0 0 0 0 0 
0 0 2.00209e-10 3.00519e-11 5.00994e-11 1.12363e-10 0 3.11708e-08 0 
0 0 0 0 0 0 0 0 0 
0 0 0 0 0 0 0 0 0 
0 0 0 0 0 2.09972e-13 0 0 0 
0 0 0 0 0 0 0 0 0 
0 0 0 0 0 0 0 0 0 
0 0 0 0 0 0 0 0 0 
0 0 0 0 0 0 0 2.48416e-10 4.08617e-11 
0 0 0 0 2.83418e-10 1.64163e-10 0 2.56949e-12 0 
0 3.5093e-11 0 1.91224e-10 0 0 0 0 0 
3.40975e-11 0 0 0 0 0 0 0 0 
0 0 0 0 0 0 0 1.3347e-10 0 
0 1.31441e-10 0 0 0 0 6.39799e-11 0 3.5391e-11 
1.32059e-11 0 0 5.46337e-11 0 3.60415e-11 0 0 0 
0 0 0 0 0 4.55163e-11 2.12962e-10 2.57783e-11 0 
0 0 0 2.67326e-11 0 0 0 1.84205e-11 0 
0 9.72051e-11 0 0 0 0 0 0 0 
0 5.4885e-11 1.36016e-10 0 0 0 0 0 2.17651e-11 
1.50013e-11 0 6.03059e-11 0 0 0 0 0 0 
1.22512e-10 0 0 0 0 0 0 0 9.30511e-11 
0 0 0 0 0 0 0 0 0 
0 0 0 0 0 0 3.45361e-11 8.24093e-11 0 
1.45227e-11 1.10097e-10 0 0 0 0 0 0 0 
1.01026e-10 0 0 0 0 0 0 0 0 
0 2.65227e-08 0 0 0 0 0 4.52148e-11 0 
0 0 0 0 0 0 0 0 0 