# vtk DataFile Version 5.1
vtk output
ASCII
DATASET STRUCTURED_POINTS
DIMENSIONS 250 250 1
SPACING 1 1 1
ORIGIN 0 0 0
POINT_DATA 62500
FIELD FieldData 6
feature_1 1 62500 float
0 0 0 0 0 0 0 0 0 
0 0 0 0 0 0 0 0 0 
0 0 0 0 0 0 0 0 0 
0 0 0 0 0 0 0 0 0 
0 0 0 0 0 0 0 0 0 
0 0 0 0 0 0 0 0 0 
0 0 0 0 0 0 0 0 0 
0 0 0 0 0 0 0 0 0 
0 0 0 0 0 0 0 0 0 
0 0 0 0 0 0 0 0 0 
0 0 0 0 0 0 0 0 0 
0 0 0 0 0 0 0 0 0 
0 0 0 0 0 0 0 0 0 
0 0 0 0 0 0 0 0 0 
0 0 0 0 0 0 0 0 0 
0 0 0 0 0 0 0 0 0 
0 0 0 0 0 0 0 0 0 
0 0 0 0 0 0 0 0 0 
0 0 0 0 0 0 0 0 0 
0 0 0 0 0 0 0 0 0 
0 0 0 0 0 0 0 0 0 
0 0 0 0 0 0 0 0 0 
0 0 0 0 0 0 0 0 0 
0 0 0 0 0 3.60801e-13 0 0 0 
0 0 0 0 0 0 0 0 0 
0 0 0 0 0 0 0 0 0 
0 0 0 0 0 0 0 0 0 
0 0 0 0 0 0 0 0 0 
0 0 0 0 0 0 0 0 0 
0 0 0 0 0 0 0 0 0 
0 0 0 0 0 0 0 0 0 
0 0 0 0 0 0 0 0 0 
0 0 0 0 0 0 0 0 0 
0 0 0 0 0 0 0 0 0 
0 0 0 0 0 0 0 0 0 
0 0 0 0 4.09652e-13 0 0 0 0 
0 0 0 0 0 0 0 0 0 
0 0 0 0 0 0 0 0 0 
0 0 0 0 0 0 0 0 0 
0 0 0 0 0 0 0 0 0 
0 1.19561e-13 0 0 0 0 0 0 0 
0 0 0 0 0 0 0 0 0 
0 0 0 0 0 0 0 0 0 
0 0 0 0 0 0 0 0 0 
0 0 0 0 0 0 0 0 0 
0 0 0 0 0 0 0 0 0 
0 0 0 0 0 0 0 0 0 
0 4.42996e-14 0 0 0 0 0 0 0 
0 0 0 0 0 0 0 0 0 
0 0 0 0 0 0 0 0 0 
0 0 0 0 0 0 0 0 0 
0 0 0 0 0 0 0 0 0 
0 0 0 0 0 0 0 0 0 
0 0 0 0 0 0 0 0 0 
0 0 0 0 0 0 0 0 0 
0 0 0 0 0 0 0 0 0 
0 0 0 0 0 0 0 0 0 
0 0 0 0 0 0 0 0 0 
0 0 0 0 0 0 0 0 0 
0 0 0 0 0 0 0 0 0 
0 0 0 0 0 0 0 0 0 
0 0 0 0 0 0 0 0 0 
0 0 0 0 0 0 0 0 0 
0 0 0 0 0 0 0 0 0 
0 0 0 0 0 0 0 0 0 
0 0 0 0 0 0 0 0 0 
0 0 0 0 0 0 0 0 0 
0 0 0 0 0 0 0 0 0 
0 0 0 0 0 0 0 0 0 
0 0 0 0 0 0 0 0 0 
0 0 0 0 0 0 0 0 0 
0 0 0 0 0 0 0 0 0 
0 0 0 0 0 0 0 0 0 
0 0 0 0 0 0 0 0 0 
0 0 0 0 6.46995e-13 0 0 0 0 
0 0 0 0 0 0 0 0 0 
0 0 0 0 0 0 0 0 0 
0 0 0 0 0 0 0 0 0 
0 0 0 0 0 0 0 0 0 
0 0 0 0 0 0 0 0 0 
0 0 0 0 0 0 0 0 0 
0 0 0 0 0 0 0 0 0 
0 0 0 0 0 0 0 0 0 
0 0 0 0 0 0 0 0 0 
0 0 0 0 0 0 0 0 0 
0 0 0 0 0 0 1.17288e-12 0 0 
0 0 0 0 0 0 0 0 0 
0 0 0 0 0 0 0 0 0 
0 0 0 0 0 0 0 0 0 
0 0 0 0 0 0 0 0 0 
0 0 0 0 0 0 0 0 0 
0 0 0 0 0 0 0 0 0 
0 0 0 0 0 0 0 0 8.19801e-13 
0 0 0 0 0 0 0 0 0 
0 0 0 0 0 0 0 0 0 
0 0 0 0 0 0 0 0 0 
0 0 0 0 0 0 0 0 0 
0 0 0 0 0 0 0 0 0 
0 0 0 0 0 0 0 0 0 
0 0 0 0 1.0296e-12 0 0 0 0 
0 0 0 0 0 0 0 0 0 
0 0 0 0 0 0 0 0 0 
0 0 0 0 0 0 0 0 0 
0 0 0 0 0 0 0 0 0 
0 0 0 0 0 0 0 0 0 
0 0 0 0 0 0 0 0 0 
0 0 0 0 0 0 0 0 0 
0 0 0 0 0 0 0 0 0 
0 0 0 0 0 0 0 0 0 
0 0 0 0 0 0 0 0 0 
0 0 0 0 0 0 0 0 0 
0 0 0 0 0 0 0 0 0 
0 0 0 0 0 0 0 0 0 
0 0 0 0 0 0 0 0 0 
0 0 0 0 0 0 0 0 0 
0 0 0 0 0 0 0 0 0 
0 0 0 0 0 0 0 0 0 
0 0 0 0 0 0 0 0 0 
0 0 0 0 0 0 0 0 0 
0 0 0 0 0 0 0 0 0 
0 0 0 0 0 0 0 0 0 
0 0 0 0 0 0 0 0 0 
0 0 0 0 0 0 0 0 0 
0 0 0 0 0 0 0 0 0 
0 0 0 0 0 0 0 0 0 
0 0 0 0 0 0 0 0 0 
0 0 0 0 0 0 0 0 0 
0 0 0 0 0 0 0 0 0 
0 0 0 0 0 0 0 0 0 
0 0 0 0 0 0 0 0 0 
0 0 0 0 0 0 0 0 0 
0 0 0 0 0 0 0 0 0 
0 0 0 0 0 0 0 0 0 
0 0 0 0 0 0 0 0 0 
0 0 0 0 0 0 0 0 0 
0 0 0 0 0 0 0 0 0 
0 0 0 0 0 0 0 0 0 
0 0 0 0 0 0 0 0 0 
0 0 0 0 0 0 0 0 0 
0 0 0 0 1.51928e-12 0 0 0 0 
0 0 0 0 0 0 0 0 0 
0 0 0 0 0 0 0 0 0 
0 0 0 0 0 0 0 0 0 
0 0 0 0 0 0 0 0 0 
0 0 0 0 0 0 0 0 0 
0 0 0 0 0 0 0 0 1.33409e-12 
0 0 0 0 0 0 0 0 0 
0 0 0 0 0 0 0 0 0 
0 0 0 0 0 0 0 0 0 
0 0 0 0 0 0 0 0 0 
0 0 0 0 0 0 0 0 0 
0 0 0 0 0 0 0 0 0 
0 0 0 0 0 0 0 0 0 
0 0 0 0 0 0 0 0 0 
0 0 0 0 0 0 0 0 0 
0 0 0 0 0 0 0 0 0 
0 0 0 0 0 0 0 0 0 
0 0 0 0 0 0 0 0 0 
0 0 0 0 0 0 0 0 0 
0 0 0 0 0 0 0 0 0 
0 0 0 0 0 0 0 0 0 
0 0 0 0 0 0 0 0 0 
0 0 0 0 0 0 0 0 0 
0 0 0 0 0 0 0 0 0 
0 0 0 0 0 0 0 0 0 
0 0 0 0 0 0 0 0 0 
0 0 0 0 0 0 0 0 0 
0 0 0 0 0 0 0 0 0 
0 0 0 0 0 0 0 0 0 
0 0 0 0 0 0 0 0 0 
0 0 0 0 0 0 0 0 0 
0 0 0 0 0 0 0 0 0 
0 0 0 0 0 0 0 0 0 
0 0 0 0 0 0 0 0 0 
0 0 0 0 0 0 0 0 0 
0 0 0 0 0 0 0 0 0 
0 0 0 0 0 0 0 0 0 
0 0 0 0 0 0 0 0 0 
0 0 0 0 0 0 0 0 0 
0 0 0 0 0 0 0 0 0 
0 0 0 0 0 0 0 0 0 
0 0 0 0 0 0 0 0 0 
0 0 0 0 0 0 0 0 0 
0 0 0 0 0 0 0 0 0 
0 0 0 0 0 0 0 0 0 
0 0 0 0 0 0 0 0 0 
0 0 0 0 0 0 0 0 0 
0 0 0 0 0 0 0 0 0 
0 9.3362e-13 0 0 0 0 0 0 0 
0 0 0 0 0 0 0 0 0 
0 0 0 0 0 0 0 0 0 
0 0 0 0 0 0 0 0 0 
0 0 0 0 0 0 0 0 0 
0 0 0 0 0 0 0 0 0 
0 0 0 0 0 0 0 0 0 
7.98224e-13 0 0 0 0 0 0 0 0 
0 0 0 0 0 0 0 0 0 
0 0 0 0 0 0 0 0 0 
0 0 0 0 0 0 0 0 0 
0 0 0 0 0 0 0 0 0 
0 0 0 0 0 0 0 0 0 
0 0 0 0 0 0 0 0 0 
0 0 0 0 0 0 0 0 0 
0 0 0 0 0 0 0 0 0 
0 0 0 0 0 0 0 0 0 
0 0 0 0 0 0 0 0 0 
0 0 0 0 0 0 0 0 0 
0 0 0 0 0 0 0 0 0 
0 0 0 0 0 0 0 0 0 
0 0 0 0 0 0 0 0 0 
0 0 0 0 0 0 0 0 0 
0 0 0 0 0 0 0 0 0 
0 0 0 0 0 0 0 0 0 
0 0 0 0 0 0 0 0 0 
0 0 0 0 0 0 0 0 0 
0 0 0 0 0 0 0 0 0 
0 0 0 0 0 0 0 0 0 
0 0 0 0 0 0 0 0 0 
0 0 0 0 0 0 0 0 0 
0 0 0 0 0 0 0 0 0 
0 0 0 0 0 0 0 0 0 
0 0 0 0 0 0 0 0 0 
0 0 0 0 0 0 0 0 0 
0 0 0 0 0 0 0 0 0 
0 0 0 0 0 0 0 0 0 
0 0 0 0 0 0 0 0 0 
0 0 0 0 0 0 0 0 0 
0 0 0 0 0 0 0 0 0 
0 0 0 0 0 0 0 0 0 
0 0 0 0 0 0 0 0 0 
0 0 0 0 0 0 0 0 0 
0 0 0 0 0 0 0 0 0 
0 0 0 0 0 0 0 0 0 
0 0 0 0 0 0 0 0 0 
0 0 0 0 0 0 0 0 0 
0 0 0 0 0 0 0 0 0 
0 0 0 0 0 0 0 0 0 
0 0 0 0 0 0 0 0 0 
0 0 0 0 0 0 0 0 0 
0 0 0 0 0 0 0 0 0 
0 0 0 0 0 0 0 0 0 
0 0 0 0 0 0 0 0 0 
0 0 0 0 0 0 0 0 0 
0 0 0 0 0 0 0 0 0 
0 0 0 0 0 0 0 0 0 
0 0 0 0 0 0 0 0 0 
0 0 0 0 0 0 0 0 0 
0 0 0 0 0 0 0 0 0 
0 0 0 0 0 0 0 0 0 
0 0 0 0 0 0 0 0 0 
0 0 0 0 0 0 0 0 0 
0 0 0 0 0 0 0 0 0 
0 0 0 0 0 0 0 0 0 
0 0 0 0 0 0 0 0 0 
0 0 0 0 0 0 0 0 0 
0 0 0 0 0 0 0 0 0 
0 0 0 0 0 0 0 0 0 
0 0 0 0 0 0 0 0 0 
0 0 0 0 0 0 0 0 0 
0 0 0 0 0 0 0 0 0 
0 0 0 0 0 0 0 0 0 
0 0 0 0 0 0 0 0 0 
0 0 0 0 0 0 0 0 0 
0 0 0 0 0 0 0 0 0 
0 0 0 0 0 0 0 0 0 
0 0 0 0 0 0 0 0 0 
0 0 0 0 0 0 0 0 0 
0 0 0 0 0 0 0 0 0 
0 0 0 0 0 0 0 0 0 
0 0 0 0 0 0 0 0 0 
0 0 0 0 0 0 0 0 0 
0 0 0 0 0 0 0 0 0 
0 0 0 0 0 0 0 0 0 
0 0 0 0 0 0 0 0 0 
0 0 0 0 0 0 0 0 0 
0 0 0 0 0 0 0 0 0 
0 0 0 0 0 0 0 0 0 
0 0 0 0 0 0 0 0 0 
0 0 0 0 0 1.62243e-13 0 0 0 
0 0 0 0 0 0 0 0 0 
0 0 0 0 0 0 0 0 0 
0 0 0 0 0 0 0 0 0 
0 0 0 0 0 0 0 0 0 
0 0 0 0 0 0 0 0 0 
0 0 0 0 0 0 0 0 0 
0 0 0 0 0 0 0 0 0 
0 0 0 0 0 0 0 0 0 
0 0 0 0 0 0 0 0 0 
0 0 0 0 0 0 0 0 1.11061e-12 
0 0 0 0 0 0 0 0 0 
0 0 0 0 0 0 0 0 0 
0 0 0 0 0 0 0 0 0 
0 0 0 0 0 0 0 0 0 
0 0 0 0 0 0 0 0 0 
0 0 0 0 0 0 0 0 0 
0 0 0 0 0 0 0 0 0 
0 0 0 0 0 0 0 0 0 
0 0 0 0 0 0 0 0 0 
0 0 0 0 0 0 0 0 0 
0 0 0 0 0 0 0 0 0 
0 0 0 0 0 0 0 0 0 
0 0 0 0 0 0 0 0 0 
0 0 0 0 0 0 0 0 0 
0 0 0 0 0 0 0 0 0 
0 0 0 0 0 0 0 0 0 
0 0 0 0 0 0 0 0 0 
0 0 0 0 0 0 0 0 0 
0 0 0 0 0 0 0 0 0 
0 0 0 0 0 0 0 0 0 
0 0 0 0 0 0 0 0 0 
0 0 0 0 0 0 0 0 0 
0 0 0 0 0 0 0 0 0 
0 0 0 0 0 0 0 0 0 
0 0 0 0 0 0 0 0 0 
0 0 0 0 0 0 0 0 0 
0 0 0 0 0 0 0 0 0 
0 0 0 0 0 0 0 0 0 
0 0 0 0 0 0 0 0 0 
0 0 0 0 0 0 0 0 0 
0 0 0 0 0 0 0 0 0 
0 0 0 0 0 0 9.97081e-13 0 0 
0 0 0 0 0 0 0 0 0 
5.38514e-13 0 0 0 0 0 0 0 0 
0 0 0 0 0 0 0 0 0 
0 0 0 0 0 0 0 0 0 
0 0 0 0 0 0 0 0 0 
0 0 0 0 0 0 0 0 0 
0 0 0 0 0 0 0 0 0 
0 0 0 0 0 0 0 0 0 
0 0 0 0 0 0 0 0 0 
0 0 0 0 0 0 0 0 0 
0 0 0 0 0 0 0 0 0 
0 0 0 0 0 0 0 0 0 
0 0 0 0 0 0 0 0 0 
0 0 0 0 0 0 0 0 0 
0 0 0 0 0 0 0 0 0 
0 0 0 0 0 0 0 0 0 
0 0 0 0 0 0 0 0 0 
0 0 0 0 0 0 0 0 0 
0 0 0 0 0 0 0 0 0 
0 0 0 0 0 0 0 0 0 
0 0 0 0 0 0 0 0 0 
0 0 0 0 0 0 0 0 0 
0 0 0 0 0 0 0 0 0 
0 0 0 0 0 0 0 0 0 
0 0 0 0 0 0 0 0 0 
0 0 0 0 0 0 0 0 0 
0 0 0 0 0 0 0 0 0 
0 0 0 0 0 0 0 0 0 
0 0 0 0 0 0 0 0 0 
0 0 0 0 0 0 0 0 0 
8.97551e-13 0 0 0 1.30415e-13 0 0 0 0 
0 0 0 0 0 0 0 0 0 
0 0 0 0 0 0 0 0 0 
0 0 0 0 0 0 0 0 0 
0 0 0 0 0 0 0 0 0 
0 0 0 0 0 0 0 0 0 
0 0 0 0 0 0 0 0 0 
0 0 0 0 0 0 0 0 0 
0 0 0 0 0 0 0 0 0 
0 0 0 0 0 0 0 0 0 
0 0 0 0 0 0 0 0 0 
0 0 0 0 0 0 0 0 0 
0 0 0 0 0 0 0 0 0 
0 0 0 0 0 0 0 0 0 
0 0 0 0 0 0 0 0 0 
0 0 0 0 0 0 0 0 0 
0 0 0 0 0 0 0 0 0 
0 0 0 0 0 0 0 0 0 
0 0 0 0 0 0 0 0 0 
0 0 0 0 0 0 0 0 0 
0 0 0 3.55941e-12 0 0 0 0 0 
0 0 0 0 0 0 0 0 0 
0 0 0 0 0 0 0 0 0 
0 5.11076e-14 0 0 0 0 0 0 0 
0 0 0 0 0 0 0 0 0 
0 0 0 0 0 0 0 0 0 
0 0 0 0 0 0 0 0 0 
0 0 0 0 0 0 0 0 0 
0 0 0 0 0 0 0 0 0 
0 0 0 0 0 0 0 0 0 
0 0 0 0 0 0 0 0 0 
0 0 0 0 0 0 0 0 0 
0 0 0 0 0 0 0 0 0 
0 0 0 0 0 0 0 0 0 
0 0 0 0 0 0 0 0 0 
0 0 0 0 0 0 0 1.09748e-12 0 
1.02581e-12 0 0 0 0 0 0 0 0 
0 0 0 0 0 0 0 0 0 
0 0 0 0 0 0 0 0 0 
0 0 0 0 0 0 0 0 0 
0 0 0 0 0 0 0 0 0 
0 1.57979e-13 0 0 0 0 0 0 0 
0 0 0 0 0 0 0 0 0 
0 0 0 0 0 0 0 0 0 
0 0 0 0 0 0 0 0 0 
0 0 0 0 0 0 0 0 0 
0 0 0 0 0 0 0 0 0 
0 0 0 0 0 0 0 0 0 
0 0 0 0 0 0 0 0 0 
0 0 0 0 0 0 0 0 0 
0 0 0 0 0 0 0 0 0 
0 0 0 0 0 0 0 0 0 
0 0 0 0 0 0 0 0 0 
0 0 0 0 0 0 0 0 0 
0 0 0 0 0 0 0 0 0 
0 0 0 0 0 0 0 0 0 
0 0 0 0 0 0 0 0 0 
0 0 0 0 0 0 0 0 0 
0 0 0 0 0 0 0 0 0 
0 0 0 0 0 0 0 0 0 
0 0 0 0 0 0 0 0 0 
0 0 0 0 0 0 0 0 0 
0 0 0 0 0 0 0 0 0 
0 0 0 0 0 0 0 0 0 
0 0 0 0 0 0 0 0 0 
0 0 0 0 0 0 0 0 0 
0 0 0 0 0 0 0 0 0 
0 0 0 0 0 0 0 0 0 
0 0 1.11302e-12 0 0 0 0 0 0 
0 0 0 0 0 0 0 0 0 
0 0 0 0 0 0 0 0 0 
0 0 0 0 0 0 0 0 0 
0 0 0 0 0 0 0 0 0 
0 0 0 0 0 0 0 0 0 
0 0 0 0 0 0 0 0 0 
0 0 0 0 0 0 0 0 0 
0 0 0 0 0 0 0 0 0 
0 0 0 0 0 0 0 0 0 
0 0 0 0 0 0 0 0 0 
0 0 0 0 0 0 0 0 0 
0 0 0 0 0 0 0 0 0 
0 0 0 0 0 0 0 0 0 
0 0 0 0 0 0 0 0 0 
0 0 0 0 0 0 0 0 0 
0 0 0 0 0 0 0 0 0 
0 0 0 0 0 0 0 0 0 
0 0 0 0 0 0 0 0 0 
0 0 0 0 0 0 0 0 0 
0 0 0 0 0 0 0 0 0 
0 0 0 0 0 0 0 0 0 
0 0 0 0 0 0 0 0 0 
0 0 0 0 0 0 0 0 0 
0 0 0 0 0 0 0 0 0 
0 0 0 0 0 0 0 0 0 
0 0 0 0 0 0 0 0 0 
0 0 0 0 0 0 0 0 0 
0 0 0 0 0 0 0 0 0 
0 0 0 0 0 0 0 0 0 
0 0 0 0 0 0 0 0 0 
0 0 0 0 0 0 0 0 0 
0 0 0 0 0 0 0 0 0 
1.14646e-11 0 0 0 0 0 0 0 0 
0 0 0 0 0 0 0 0 0 
0 0 0 0 0 0 0 0 0 
0 0 0 0 0 0 0 0 0 
0 0 0 1.76354e-12 0 0 0 0 0 
0 0 0 0 0 0 0 0 0 
0 0 0 0 0 0 0 0 0 
0 0 0 0 0 0 0 0 0 
0 0 0 0 8.64052e-12 0 0 0 0 
0 0 0 0 0 0 0 0 0 
0 0 0 0 0 0 0 0 0 
0 0 0 0 0 0 0 0 0 
0 0 0 0 0 0 0 0 0 
0 0 0 0 0 0 0 0 0 
0 0 0 0 0 0 0 0 0 
0 0 0 0 0 0 0 0 0 
0 0 0 0 0 0 0 0 0 
0 0 0 0 0 0 0 0 0 
0 0 0 0 0 0 0 0 0 
0 0 0 0 0 0 0 0 0 
0 0 0 0 0 0 0 0 0 
0 0 0 0 0 0 0 0 0 
0 0 0 0 0 0 0 0 0 
0 0 0 0 0 0 0 0 0 
0 0 0 0 0 0 0 0 0 
0 0 0 0 0 0 0 0 0 
0 0 0 0 0 0 0 0 0 
0 0 0 0 0 0 0 0 0 
0 5.5963e-12 0 0 0 0 0 0 0 
0 0 0 0 0 0 0 0 0 
0 0 0 0 0 0 0 0 0 
0 0 0 0 0 0 0 0 0 
0 0 0 0 0 0 0 0 0 
0 0 0 0 0 0 0 0 0 
0 0 0 0 0 0 0 0 0 
0 0 0 0 0 0 0 0 0 
0 0 0 0 0 0 0 0 0 
0 0 0 8.64049e-12 0 0 0 0 0 
0 0 0 0 0 0 0 0 0 
0 0 0 0 0 0 0 0 0 
0 0 0 0 0 0 0 0 0 
0 0 0 0 0 0 0 0 0 
0 0 0 0 0 0 0 0 0 
0 0 0 0 0 0 0 0 0 
0 0 0 0 0 0 0 0 0 
0 0 0 0 0 0 0 0 0 
0 0 0 0 0 0 0 0 0 
0 0 0 0 0 0 0 0 0 
0 0 0 0 0 0 0 0 0 
0 0 0 0 0 0 0 0 0 
0 0 0 0 0 0 0 0 0 
0 0 0 0 0 0 0 0 4.07616e-12 
0 0 0 0 0 0 0 0 0 
0 0 0 0 0 0 0 0 0 
0 0 0 0 7.27052e-12 0 0 0 0 
0 0 0 0 0 0 0 0 5.3891e-12 
0 0 0 0 0 0 0 0 0 
0 0 0 0 0 0 0 0 0 
0 0 0 4.56705e-12 0 0 0 0 0 
0 0 0 0 0 0 0 0 0 
0 0 0 8.95957e-12 0 0 0 0 0 
0 0 0 0 0 0 0 0 0 
0 0 0 0 0 0 0 0 0 
0 0 2.89462e-13 0 0 0 0 0 0 
0 0 0 0 0 0 0 0 0 
0 0 0 0 0 0 0 0 0 
0 0 0 0 0 0 0 0 0 
0 0 0 0 0 0 0 0 9.57415e-13 
0 0 0 0 0 0 0 0 0 
0 0 0 0 0 0 0 0 0 
0 0 0 0 0 0 0 0 0 
0 0 0 0 0 0 0 0 0 
0 0 0 0 0 0 0 0 0 
0 0 0 0 0 0 0 0 0 
0 0 0 0 0 0 0 0 0 
0 0 0 0 0 0 0 0 0 
0 0 0 0 0 0 0 0 0 
0 0 0 0 0 0 0 0 0 
0 0 0 0 0 0 0 0 0 
0 0 0 0 0 0 0 0 0 
0 0 0 0 0 0 0 0 0 
0 0 0 0 0 0 0 0 0 
0 0 0 0 0 8.92932e-14 0 0 0 
0 0 0 0 0 0 0 0 0 
0 0 0 0 0 0 0 0 0 
0 0 0 0 0 0 0 0 6.27389e-12 
0 0 0 0 0 0 0 0 0 
0 0 0 0 0 0 0 0 0 
0 0 0 0 0 0 0 0 0 
0 0 0 0 0 0 0 0 0 
0 0 0 0 0 0 0 0 0 
0 0 0 0 0 0 0 0 0 
0 0 0 0 0 3.66301e-12 0 0 0 
0 0 0 0 0 0 0 0 0 
0 0 0 0 0 0 0 0 0 
0 0 0 0 0 0 0 0 0 
0 0 0 0 0 0 0 0 0 
1.19277e-12 0 0 0 0 0 0 0 0 
0 0 0 0 0 0 0 0 0 
0 0 0 0 0 0 0 0 0 
0 0 0 0 0 0 0 0 0 
0 0 0 0 0 0 0 0 0 
0 0 0 0 0 0 0 0 0 
0 0 0 0 0 0 0 0 0 
0 0 0 0 0 0 0 0 0 
0 0 0 0 0 0 0 0 0 
0 0 0 0 0 0 0 0 0 
0 0 0 0 0 0 0 0 0 
0 0 0 0 0 0 0 0 0 
0 0 0 0 0 0 0 0 0 
0 0 0 0 0 0 0 0 0 
1.25971e-11 0 0 0 2.98566e-11 1.10732e-11 0 0 0 
0 0 0 0 0 0 5.02087e-13 0 0 
0 2.29655e-11 0 0 0 0 0 0 1.12785e-11 
0 0 0 0 0 0 0 0 0 
0 0 0 0 0 0 0 0 0 
0 0 0 0 0 0 0 0 0 
0 0 0 0 0 0 0 0 0 
0 0 0 0 0 0 0 0 0 
0 0 0 0 0 0 0 0 0 
0 0 0 0 0 0 0 0 0 
0 0 0 0 0 0 0 0 0 
0 0 0 0 0 0 0 0 0 
0 0 0 0 0 0 0 0 0 
0 0 0 0 0 0 0 0 0 
0 0 0 0 0 0 0 0 0 
0 0 0 0 0 0 0 0 0 
0 0 0 0 0 0 0 0 0 
0 0 0 0 0 0 0 0 0 
0 0 0 0 0 0 0 0 0 
0 0 0 0 0 0 0 0 0 
0 0 0 0 0 0 0 0 0 
0 0 0 0 0 0 0 0 0 
0 0 0 0 0 0 0 0 0 
0 0 0 0 0 0 0 0 0 
0 0 0 0 0 0 0 0 0 
0 0 0 0 0 0 0 0 0 
0 0 5.0506e-12 0 0 0 0 0 0 
0 0 0 0 0 1.69551e-11 1.55031e-11 0 0 
0 0 0 0 0 0 0 0 0 
0 0 0 0 0 0 0 0 0 
0 0 0 0 0 0 0 0 0 
8.18155e-12 0 0 0 0 1.96205e-11 0 0 0 
0 0 0 0 0 5.32784e-12 0 0 0 
0 0 0 0 0 0 0 0 0 
0 0 0 0 0 0 0 0 0 
0 0 0 0 0 0 0 0 0 
0 0 0 0 0 1.46088e-11 0 1.42919e-11 0 
0 0 0 0 0 0 0 0 0 
0 0 0 0 0 0 0 0 0 
0 0 0 0 0 0 0 0 0 
0 0 0 0 0 0 0 0 0 
0 0 0 0 0 0 0 0 0 
0 0 0 0 0 0 0 0 0 
0 0 0 0 0 0 0 9.30639e-12 0 
0 0 0 0 0 0 0 0 0 
0 0 0 0 0 0 0 0 0 
0 0 0 0 0 0 0 0 0 
0 0 0 0 0 0 0 0 0 
0 0 0 0 0 0 0 0 0 
0 0 0 0 0 0 0 0 0 
0 0 0 0 0 0 0 0 0 
0 0 0 0 0 0 0 0 0 
0 0 0 0 0 1.56373e-13 0 0 0 
0 0 0 0 0 0 0 0 0 
0 0 0 0 0 0 0 0 0 
0 0 0 0 0 2.24814e-11 0 2.07935e-11 0 
0 0 0 0 0 0 0 0 0 
0 0 0 0 2.2835e-11 0 3.23887e-11 0 0 
1.04305e-11 0 0 0 0 0 0 0 0 
2.83167e-11 0 0 0 0 0 0 0 0 
0 1.98741e-11 1.34982e-11 0 0 0 0 0 0 
0 0 0 0 0 0 0 0 0 
0 0 0 0 1.01507e-11 0 0 0 0 
0 0 0 0 0 0 1.17576e-11 0 0 
0 0 0 1.06373e-11 0 0 0 0 0 
0 0 0 0 0 0 0 0 0 
0 0 0 0 0 0 0 0 0 
0 0 0 0 0 0 0 0 0 
0 0 0 0 0 0 0 0 0 
0 0 0 0 0 0 0 0 0 
0 0 0 0 0 0 0 0 0 
0 0 2.79491e-12 0 0 0 0 0 0 
0 0 0 0 0 0 0 0 0 
0 0 0 0 0 0 0 0 0 
0 0 0 0 0 0 0 0 0 
0 0 0 0 0 0 0 0 0 
0 0 0 0 0 0 0 0 0 
0 0 0 0 0 0 0 0 0 
0 0 0 0 0 0 0 0 0 
0 0 0 0 0 0 0 0 0 
0 0 0 0 0 0 0 0 0 
0 0 1.67517e-11 2.27648e-11 0 0 0 9.65039e-12 0 
0 0 0 0 0 0 0 0 0 
0 2.72291e-11 0 5.9847e-12 0 0 0 0 0 
0 0 7.43547e-12 0 0 0 0 0 0 
0 0 0 0 0 0 0 0 0 
0 0 0 0 0 0 0 1.01918e-11 0 
0 0 0 0 0 0 0 0 0 
1.92143e-12 2.40022e-11 0 0 0 0 0 0 0 
1.11659e-11 0 0 0 0 0 0 0 0 
0 0 0 0 0 0 0 0 0 
1.07677e-11 0 0 0 0 0 0 9.42924e-12 0 
0 0 0 0 0 0 1.45516e-11 0 0 
0 9.53019e-13 0 0 0 0 0 0 0 
0 0 0 0 0 0 0 0 0 
0 0 0 0 0 0 0 0 0 
0 0 0 0 0 0 0 0 0 
0 0 0 0 0 0 0 0 0 
0 0 0 0 0 0 0 0 1.65254e-11 
0 0 0 9.23307e-12 0 0 0 0 0 
0 0 0 0 0 0 0 0 0 
0 0 0 0 0 0 0 0 0 
0 0 0 0 0 0 0 0 0 
0 0 0 0 0 0 0 0 0 
0 0 0 0 0 0 0 6.06843e-13 0 
0 0 0 0 0 0 0 0 0 
0 0 0 0 0 0 0 0 0 
0 0 0 0 0 0 0 0 0 
0 0 0 0 0 0 0 0 0 
0 0 0 0 0 0 0 0 0 
0 0 8.73858e-12 1.9469e-11 0 1.22631e-11 0 0 0 
3.6636e-11 0 3.80146e-11 0 0 0 0 0 0 
2.87025e-11 0 0 0 0 0 0 0 0 
0 2.10896e-11 0 0 0 0 0 5.55719e-11 0 
0 0 0 0 0 0 0 0 0 
0 0 0 0 0 0 0 0 0 
4.01917e-11 0 0 5.88968e-12 0 1.7813e-11 0 0 0 
0 0 0 0 0 0 9.07466e-12 0 0 
0 0 0 0 0 0 0 0 0 
3.17605e-11 0 0 0 0 0 0 0 0 
0 0 0 0 0 0 0 0 0 
0 0 0 0 0 0 1.13455e-11 0 0 
0 0 0 0 0 0 0 0 0 
0 0 0 0 0 0 0 0 0 
0 0 0 0 0 0 0 0 0 
0 0 0 0 0 0 0 0 0 
0 0 0 4.62655e-13 0 0 0 0 0 
0 0 0 0 0 0 0 0 0 
3.00087e-12 0 0 0 0 0 0 0 0 
0 0 0 0 0 0 0 0 0 
0 0 0 0 0 0 0 0 0 
0 0 0 0 0 0 0 0 0 
0 0 0 0 0 0 0 0 0 
0 0 0 0 0 0 0 0 0 
0 0 0 0 0 0 0 0 0 
0 0 0 0 0 0 1.18375e-11 0 0 
3.04262e-11 0 3.65536e-11 0 0 0 0 0 0 
0 0 0 0 0 0 0 0 0 
0 0 0 0 1.81451e-11 0 2.41965e-11 0 0 
1.887e-11 3.33429e-11 0 0 0 4.4578e-11 0 0 0 
0 0 0 0 0 0 0 0 0 
0 0 0 2.59822e-11 6.96263e-11 0 0 2.71005e-11 0 
5.3873e-11 0 0 0 0 0 0 0 0 
0 3.26126e-11 0 4.31416e-11 0 0 0 0 0 
0 0 0 0 3.32256e-12 0 0 0 1.26935e-11 
0 0 0 0 0 0 0 0 0 
0 0 0 0 0 0 0 0 0 
0 0 0 6.2043e-11 2.41541e-11 0 0 0 0 
0 0 0 0 2.68093e-12 0 0 0 0 
0 1.70827e-11 0 0 0 0 0 0 0 
0 0 1.33292e-11 0 0 0 0 0 0 
0 0 0 0 0 0 1.79145e-12 0 0 
0 0 0 0 0 0 0 0 0 
0 0 0 0 0 0 0 0 0 
0 0 0 0 0 0 0 0 2.60415e-11 
0 0 0 0 0 0 0 0 0 
0 0 0 0 0 0 0 0 0 
0 0 0 0 0 0 0 0 0 
0 0 0 0 0 0 0 0 0 
0 0 0 0 0 0 0 0 0 
0 0 0 0 0 0 0 0 0 
0 0 0 0 0 0 0 0 0 
0 0 0 0 0 0 0 0 0 
0 0 0 0 0 0 0 0 0 
2.922e-11 0 0 0 6.6547e-11 0 0 0 0 
0 0 0 0 0 0 0 0 0 
0 0 1.35904e-11 1.50905e-11 0 0 0 0 0 
0 0 0 0 2.33692e-11 0 0 0 0 
0 0 0 0 0 7.95769e-11 0 0 3.63985e-12 
1.89355e-11 0 6.69766e-11 1.05432e-10 0 0 0 0 0 
0 0 0 0 0 0 0 0 0 
5.01388e-11 4.8559e-11 0 0 5.93155e-11 0 0 0 0 
4.20059e-11 0 0 0 0 0 0 0 0 
0 0 0 0 1.96551e-11 0 0 0 0 
0 1.04266e-12 0 0 0 0 0 0 0 
0 0 0 6.87283e-12 4.38245e-11 0 0 1.21541e-11 0 
1.33473e-11 0 0 1.90568e-11 0 0 0 0 0 
0 0 0 0 0 0 0 0 0 
0 1.16235e-11 1.45392e-12 0 0 0 0 0 0 
0 2.32496e-11 0 2.70948e-12 0 0 0 0 0 
0 0 0 0 0 0 0 0 0 
0 0 0 0 0 0 0 9.0376e-12 0 
0 1.57754e-11 0 0 0 0 0 0 0 
0 0 0 0 9.67426e-12 0 0 0 0 
0 0 2.5557e-12 0 0 0 0 0 0 
0 0 0 0 0 0 0 0 0 
0 0 0 0 0 0 0 0 0 
0 0 0 0 0 0 0 0 0 
0 0 0 0 0 0 0 0 0 
0 0 0 0 0 0 0 0 0 
0 0 0 0 0 1.70904e-11 0 0 0 
0 3.38357e-12 0 0 3.28431e-12 0 0 0 0 
0 1.26638e-12 4.55599e-11 0 0 0 0 5.26177e-11 0 
0 0 0 0 0 2.54016e-11 0 0 0 
0 0 0 0 8.68372e-11 0 2.00916e-10 0 0 
0 0 4.88918e-11 4.02603e-11 1.57103e-11 0 0 2.596e-11 0 
0 0 0 0 0 4.56012e-12 0 0 8.09001e-11 
0 0 0 0 0 0 8.19343e-11 0 0 
0 0 0 0 6.98841e-11 0 0 5.6396e-11 0 
0 0 0 0 0 2.38528e-11 7.26693e-14 0 0 
2.7186e-11 0 0 0 0 0 2.25045e-11 0 0 
0 0 0 0 0 0 0 0 5.70068e-11 
0 0 0 0 9.05559e-11 0 1.35707e-10 0 0 
0 4.12749e-11 0 0 0 0 3.45162e-11 0 0 
6.32233e-11 0 4.98225e-11 0 0 2.74766e-11 0 0 0 
0 0 0 0 1.58481e-11 0 0 3.20225e-11 0 
0 0 1.69639e-11 3.07051e-11 0 0 0 0 0 
0 0 0 0 0 0 0 0 0 
0 0 0 0 0 0 0 0 0 
0 0 0 0 0 0 0 0 0 
0 0 2.25378e-11 8.24326e-12 0 0 0 3.12392e-11 0 
0 0 0 0 0 0 0 0 0 
0 0 0 0 0 0 0 0 0 
0 0 0 0 0 0 0 0 0 
0 0 0 0 0 0 0 0 0 
0 0 0 0 0 0 0 0 0 
0 0 0 0 0 0 0 0 0 
0 0 0 0 0 0 0 3.76626e-11 0 
0 0 0 0 1.04674e-11 0 0 0 0 
0 0 0 0 0 3.9632e-11 0 0 0 
0 2.33511e-10 0 0 6.05593e-11 0 0 0 0 
5.48622e-12 0 0 1.68642e-11 0 0 0 0 0 
0 0 0 2.06309e-10 2.43358e-08 0 0 0 3.95602e-11 
0 2.47051e-11 0 0 0 0 0 0 0 
0 0 0 0 2.43006e-10 0 0 0 3.42918e-11 
0 1.19391e-11 0 2.18947e-11 0 0 0 0 6.76163e-11 
0 0 7.32794e-12 0 0 0 0 0 0 
0 0 0 0 0 0 0 0 3.47291e-11 
0 0 1.76394e-11 0 1.51776e-11 0 0 0 0 
0 0 5.25066e-11 0 0 0 0 0 0 
0 0 5.9468e-11 6.82009e-11 0 0 0 0 0 
1.23062e-10 1.27253e-11 0 0 0 9.11716e-11 5.25495e-11 0 0 
0 0 0 0 0 0 0 0 0 
0 1.96009e-11 0 0 0 0 2.70407e-13 0 0 
1.23099e-11 0 0 0 3.16802e-13 2.98052e-11 0 0 0 
0 0 0 0 0 0 0 0 0 
0 0 0 0 0 0 0 6.83522e-12 0 
0 0 1.70731e-11 0 0 3.63033e-11 0 0 0 
0 0 0 7.02634e-11 0 3.40563e-11 0 0 0 
0 0 0 0 0 0 1.3109e-12 0 0 
0 0 0 0 0 0 0 0 0 
1.98099e-12 0 0 0 0 0 0 0 0 
0 0 0 0 0 0 0 0 0 
0 0 0 0 0 0 0 0 0 
0 0 0 0 0 0 0 0 0 
0 0 0 0 1.90621e-11 9.78983e-12 0 0 6.55178e-11 
0 0 0 4.37721e-11 9.35475e-12 3.30603e-11 0 0 0 
0 0 0 0 0 0 0 0 0 
0 3.80117e-11 0 0 0 2.69977e-11 7.08572e-11 0 1.01341e-11 
0 8.44446e-12 0 0 1.10248e-11 1.55587e-11 4.81269e-11 0 0 
0 0 0 1.71401e-10 0 0 4.51181e-11 0 2.57211e-11 
0 0 0 0 0 0 0 1.91565e-11 5.29426e-11 
3.74712e-11 1.26898e-10 2.54798e-08 0 0 0 0 0 0 
2.54664e-11 0 0 0 2.64848e-08 0 0 1.22658e-10 0 
0 7.76512e-12 5.65088e-11 0 2.28637e-11 9.81767e-11 1.39343e-10 0 0 
0 0 0 5.3503e-11 2.74749e-11 9.94509e-12 0 0 0 
0 0 0 1.63491e-11 0 0 0 0 0 
1.58354e-11 0 1.07804e-10 5.28509e-11 0 0 0 0 0 
0 0 0 2.52212e-08 0 0 0 2.33723e-11 0 
8.82285e-11 0 0 1.8398e-10 5.37102e-11 0 0 5.97142e-11 8.08544e-11 
0 0 2.68895e-11 0 0 3.89176e-11 0 0 0 
0 4.07311e-11 0 0 2.85276e-11 0 0 0 0 
0 0 0 0 0 0 0 2.79834e-11 0 
0 0 0 0 0 0 0 0 0 
0 0 0 0 0 0 1.21549e-11 0 0 
0 0 0 0 0 0 0 0 3.30756e-12 
0 0 0 0 0 0 0 0 0 
0 0 1.21815e-11 0 0 0 0 0 0 
0 0 0 0 0 0 0 0 0 
0 0 0 0 0 0 0 0 0 
0 0 0 0 0 0 0 0 0 
0 0 0 0 0 0 0 7.82135e-14 0 
0 0 0 0 0 0 0 0 0 
1.60875e-11 0 0 0 0 8.34748e-11 8.85632e-11 0 0 
0 2.13457e-11 0 0 0 0 0 0 0 
0 0 0 0 0 1.51707e-11 0 0 0 
0 0 0 0 0 0 3.74154e-11 0 0 
0 6.40649e-13 0 0 1.64201e-11 0 8.20261e-11 7.71309e-11 0 
0 0 1.0303e-10 8.12075e-11 3.16813e-12 0 0 0 0 
0 0 0 0 1.92237e-12 3.80323e-11 0 0 0 
1.33438e-10 0 0 0 1.47971e-10 0 0 0 0 
2.39288e-11 0 1.79763e-10 0 0 0 0 0 5.97771e-11 
3.06581e-11 0 7.63102e-11 2.83232e-11 0 0 2.46479e-08 0 0 
3.88897e-11 0 0 0 0 1.43512e-11 0 0 0 
0 0 4.62351e-11 0 0 7.94626e-11 7.23249e-11 0 0 
9.92911e-11 7.29459e-11 2.78003e-11 0 8.09221e-11 0 0 0 1.38939e-10 
0 0 0 3.48616e-11 0 1.69668e-10 0 0 0 
1.09308e-10 0 0 0 4.92156e-11 5.86928e-11 0 8.42414e-12 0 
0 0 6.2548e-12 3.9488e-11 0 0 0 0 0 
0 0 0 0 0 2.78509e-11 0 7.96324e-11 0 
0 0 6.01303e-11 0 7.86164e-11 0 0 0 0 
0 0 0 0 0 0 0 0 0 
0 9.10487e-12 0 0 0 0 0 0 0 
0 0 1.85182e-11 8.6819e-11 2.31988e-11 0 0 0 0 
0 6.0306e-11 0 3.45408e-11 2.88814e-11 0 0 0 1.01167e-11 
0 2.2191e-11 0 0 0 0 0 0 0 
0 0 0 0 0 0 0 0 0 
0 0 0 0 0 0 0 0 0 
0 0 0 0 0 0 0 0 0 
0 0 0 0 0 0 0 0 0 
0 0 0 0 0 0 0 0 0 
0 3.94364e-12 0 5.53695e-11 0 0 0 0 0 
0 0 0 4.70989e-11 4.9332e-11 0 0 0 3.73843e-13 
0 2.63477e-08 0 2.46225e-10 0 0 2.94771e-12 0 0 
0 1.21924e-10 0 0 0 0 0 0 3.69763e-11 
2.67778e-11 0 0 0 0 2.94758e-11 6.67644e-11 0 0 
0 0 0 0 1.1067e-11 0 0 0 0 
0 0 0 0 0 0 4.6202e-11 0 0 
0 0 1.00832e-10 0 3.44707e-11 0 0 0 0 
0 0 0 0 0 0 5.47009e-11 1.07154e-11 0 
0 1.21805e-10 0 0 0 0 3.63118e-10 0 0 
0 0 0 0 0 0 0 1.792e-11 0 
3.76348e-14 0 0 0 0 2.17325e-10 0 0 6.04925e-11 
0 0 0 4.08258e-11 4.97598e-11 2.75935e-11 0 0 0 
1.22082e-10 0 0 0 0 2.94053e-10 2.7341e-08 2.75039e-10 0 
0 0 1.18654e-10 0 0 8.94394e-11 0 0 0 
1.62747e-11 0 0 0 0 1.50635e-11 0 0 0 
0 5.14268e-11 1.20662e-10 0 0 0 0 4.20316e-11 6.88353e-11 
0 0 0 0 0 0 0 1.02632e-11 0 
0 0 0 0 7.84194e-12 0 0 0 0 
0 0 0 0 3.26578e-11 0 0 0 0 
0 0 8.02718e-11 0 1.76535e-12 2.37664e-10 0 0 0 
0 0 0 5.3601e-11 0 0 0 0 0 
0 0 1.03739e-11 0 0 0 0 0 0 
0 0 0 0 0 0 0 0 0 
0 0 0 0 0 0 0 0 0 
0 0 0 0 0 0 0 0 0 
0 0 0 0 0 0 0 0 0 
0 0 0 0 0 0 0 3.94877e-11 0 
0 6.3606e-11 0 0 2.47403e-08 0 3.48341e-11 0 0 
4.06552e-11 0 3.21102e-11 0 0 0 0 0 0 
3.58481e-10 0 0 0 0 2.47614e-11 1.38445e-10 0 0 
1.46949e-10 0 0 0 8.03424e-11 9.85794e-12 0 0 0 
0 0 3.40576e-11 1.58766e-11 0 0 5.02065e-11 0 0 
0 0 0 2.39088e-11 0 3.10328e-11 0 2.59365e-11 0 
0 0 0 0 0 2.49328e-10 1.97356e-10 0 0 
0 2.93848e-11 6.32784e-11 9.67904e-11 0 0 1.58886e-10 0 0 
4.03256e-11 0 0 0 0 0 1.0744e-10 9.03499e-11 0 
1.41191e-10 0 1.64313e-10 0 0 9.67633e-11 0 5.41574e-11 0 
0 0 2.14368e-11 0 0 0 0 0 0 
4.76258e-11 0 0 2.44593e-08 1.61177e-10 0 9.80599e-11 0 0 
0 0 0 0 0 1.04101e-10 0 0 1.48653e-10 
6.37304e-12 1.13023e-12 0 0 0 1.83407e-10 0 0 2.00939e-10 
0 0 0 0 0 0 1.6061e-10 0 3.82413e-11 
0 0 0 0 0 0 0 0 1.19597e-10 
0 0 0 6.25797e-11 1.52817e-10 0 0 0 0 
0 0 0 0 0 0 0 2.83851e-12 0 
0 0 0 0 0 0 0 0 4.28636e-12 
0 0 0 0 0 0 1.18987e-10 0 8.7753e-11 
0 0 0 2.49564e-08 0 0 0 0 7.22049e-11 
0 0 4.07033e-11 0 1.69086e-11 0 9.58959e-12 0 0 
0 7.84519e-12 0 0 0 0 0 0 0 
0 0 0 0 0 0 0 0 0 
0 0 0 0 0 0 0 0 0 
0 0 0 0 0 0 0 0 0 
0 0 0 0 0 0 0 0 0 
0 0 0 0 0 0 0 0 1.91441e-13 
0 1.77147e-10 8.30191e-11 1.17579e-10 3.13858e-11 0 0 0 0 
0 0 0 0 0 0 0 0 0 
2.29268e-10 0 0 7.67336e-12 0 1.17172e-10 1.42039e-10 3.63945e-11 0 
0 0 0 0 0 0 0 0 0 
2.78291e-11 0 0 0 0 3.0434e-11 0 6.4183e-11 0 
5.69477e-13 0 0 0 2.73514e-11 0 0 1.89255e-11 0 
6.87669e-11 0 0 0 1.57967e-10 0 4.48111e-11 0 0 
2.94869e-10 0 0 3.00133e-10 0 0 0 0 0 
0 0 0 3.91041e-11 0 6.03285e-11 0 0 2.34469e-10 
0 0 0 0 5.72794e-11 2.95212e-12 0 0 0 
0 0 0 0 0 0 0 0 1.90266e-11 
0 0 0 0 9.27537e-11 0 0 3.5992e-11 0 
7.42664e-11 0 0 3.79399e-11 0 0 0 0 1.0171e-10 
0 0 0 0 1.61579e-10 2.80108e-10 2.71346e-08 0 0 
0 1.48882e-11 0 0 0 6.58534e-11 0 0 0 
0 0 0 0 7.0375e-11 0 1.63211e-10 8.67456e-11 0 
0 0 0 0 0 6.01621e-11 0 0 0 
0 0 0 0 0 0 0 0 0 
0 0 0 0 0 0 1.32087e-11 0 0 
0 0 0 3.32031e-11 5.89617e-11 0 0 1.83994e-11 3.0634e-11 
0 0 0 9.8371e-14 0 1.48957e-11 0 6.74929e-11 4.84335e-11 
0 0 0 0 0 6.20185e-12 3.84483e-12 0 0 
0 1.49068e-11 0 0 0 0 0 0 0 
0 0 0 0 0 0 0 0 0 
0 0 0 0 0 0 0 0 0 
0 0 0 0 0 0 0 0 0 
0 0 0 0 0 0 0 0 0 
0 0 0 3.25413e-12 0 0 7.01928e-11 1.43024e-11 0 
1.11086e-10 2.66789e-11 3.4395e-11 0 0 0 1.11894e-11 0 1.96185e-10 
0 0 2.54397e-11 0 0 2.68878e-10 0 0 2.10783e-10 
0 0 0 0 2.68304e-08 0 0 4.34507e-11 0 
3.82992e-11 0 0 0 7.08039e-11 0 0 0 0 
0 0 0 0 0 0 0 0 0 
0 0 3.66091e-12 0 0 6.16885e-11 6.50694e-11 2.72954e-11 0 
0 0 0 0 0 0 0 0 0 
0 0 0 0 0 0 0 0 1.21038e-10 
0 2.04619e-11 1.83353e-10 1.14643e-10 9.51104e-12 0 1.28452e-11 0 0 
0 0 0 0 0 9.00492e-12 0 0 1.05735e-11 
0 0 0 9.6923e-11 0 0 0 0 3.69499e-11 
2.71159e-11 0 1.42597e-10 0 0 9.14244e-12 0 0 0 
0 8.47474e-11 0 0 0 0 0 1.20145e-10 0 
0 0 0 2.32121e-10 0 0 0 0 0 
0 0 0 0 0 4.984e-11 0 0 0 
0 0 0 3.55852e-11 0 0 0 0 0 
0 0 0 4.39116e-11 5.53321e-11 9.81882e-11 7.50135e-11 0 0 
0 0 0 0 0 0 0 0 0 
0 0 0 3.20448e-11 0 0 0 0 0 
0 0 0 3.32778e-11 0 1.31114e-10 4.18377e-11 0 0 
0 1.97338e-10 0 0 0 0 0 0 0 
0 0 0 0 2.9539e-11 0 0 0 0 
0 0 0 0 0 0 0 0 0 
0 0 0 0 0 0 0 0 0 
0 0 0 0 0 0 0 0 0 
0 0 0 0 0 0 0 0 0 
0 0 0 0 0 0 0 0 0 
0 0 5.07149e-11 0 0 4.65291e-11 0 2.19494e-11 2.09837e-11 
0 0 0 0 1.32129e-12 0 0 0 0 
0 1.43787e-10 0 0 0 0 0 0 0 
0 6.23387e-11 2.57541e-10 0 0 9.61834e-11 0 0 0 
4.47674e-11 0 0 1.50365e-11 0 0 0 0 1.16907e-11 
0 0 0 0 0 0 2.85686e-11 0 6.59089e-11 
0 0 0 7.41042e-11 7.40444e-11 0 0 0 0 
1.71197e-10 0 0 3.03478e-08 0 0 0 3.48486e-08 0 
0 0 0 1.64009e-10 0 1.04357e-10 0 6.90423e-11 1.70513e-10 
2.27766e-11 2.62423e-11 7.75411e-11 0 0 0 0 6.34403e-11 0 
5.47042e-11 0 0 0 0 0 1.0536e-11 0 0 
0 0 0 0 0 0 0 0 0 
3.00134e-11 0 0 1.22236e-12 7.3403e-11 0 0 0 5.3342e-11 
0 0 0 1.33476e-11 0 0 0 5.32095e-11 0 
8.01989e-11 0 0 0 0 0 0 8.96357e-11 4.27054e-11 
0 0 0 0 0 0 1.50751e-10 0 0 
0 0 0 0 0 0 0 0 0 
0 0 0 0 0 7.56836e-11 6.60419e-11 0 0 
0 0 0 0 9.54262e-12 0 0 0 0 
0 3.4436e-11 5.60186e-13 6.17282e-11 0 0 0 0 0 
0 0 9.7612e-11 0 0 0 0 0 0 
0 0 4.7148e-11 7.54256e-11 2.50986e-11 1.01536e-10 0 5.70537e-11 1.44936e-10 
0 0 0 0 0 0 0 0 0 
0 0 0 0 0 0 0 0 0 
0 0 0 0 0 0 0 0 0 
0 0 0 0 0 0 0 0 0 
0 0 0 0 0 0 0 0 0 
0 0 0 0 0 0 0 0 0 
0 4.24995e-11 0 1.00049e-10 0 6.68211e-11 0 0 0 
0 0 0 1.20332e-10 3.94692e-11 4.14154e-11 0 9.61136e-11 0 
0 0 0 0 0 0 0 0 0 
0 0 0 0 0 1.02031e-11 0 0 0 
0 0 0 0 0 0 1.03204e-10 0 0 
0 0 8.54254e-11 0 0 0 1.49107e-11 0 0 
0 0 0 0 0 8.07351e-11 0 1.8177e-10 0 
0 0 2.51462e-10 0 0 0 0 0 0 
0 0 0 0 2.63243e-08 0 0 0 0 
0 0 0 0 0 0 0 0 0 
0 0 0 0 0 0 0 0 1.46645e-11 
0 0 0 0 1.83192e-11 0 0 0 5.70088e-11 
0 5.39187e-12 0 0 1.29407e-10 0 0 0 0 
5.92599e-11 0 0 0 0 0 1.01032e-10 0 8.4506e-11 
6.41297e-11 9.2792e-11 0 0 0 0 1.23647e-10 0 0 
1.01995e-10 2.49773e-08 0 0 0 1.16014e-10 4.50416e-11 0 0 
0 1.98586e-10 0 0 0 0 2.83893e-08 0 0 
6.7131e-11 0 0 0 0 0 0 0 0 
0 0 0 0 0 0 0 0 0 
0 3.8841e-11 0 0 0 1.13353e-10 6.27516e-11 0 0 
1.2142e-11 0 0 0 0 0 0 0 0 
0 8.43678e-13 0 0 0 0 0 0 8.10804e-11 
4.51491e-11 0 0 0 0 0 0 0 0 
0 0 0 0 0 0 0 0 0 
0 0 0 0 0 0 0 0 0 
0 0 0 0 0 0 0 0 0 
0 0 0 0 0 0 0 0 0 
0 0 0 0 0 0 3.03542e-11 0 0 
0 5.89492e-11 0 0 0 0 0 9.66419e-11 0 
3.9692e-10 0 0 0 3.16016e-11 7.66745e-11 0 0 0 
0 3.85884e-08 3.87902e-08 0 0 0 2.93711e-11 0 0 
0 0 7.63985e-11 1.89756e-11 0 0 0 0 0 
0 0 9.01139e-11 0 0 4.04636e-11 0 0 0 
0 0 2.15255e-11 0 0 0 0 0 0 
0 2.28424e-11 0 0 0 0 0 0 0 
0 0 0 0 3.34033e-08 0 0 2.14966e-10 0 
2.6208e-10 0 2.74211e-10 0 0 6.63292e-12 0 0 1.10772e-11 
0 0 0 0 0 5.51606e-11 0 0 0 
0 0 0 0 0 0 0 0 0 
0 7.7257e-11 0 0 0 0 0 0 0 
0 5.93477e-12 0 0 0 0 0 0 0 
0 0 2.13345e-12 1.14386e-10 0 0 0 1.70179e-10 0 
0 9.21267e-12 0 0 0 0 0 0 0 
0 8.31982e-11 9.59367e-12 0 1.03334e-10 5.1478e-11 0 2.09461e-10 0 
0 0 0 0 9.14806e-11 0 0 0 3.77532e-11 
0 0 0 0 0 0 0 0 0 
0 0 0 0 1.58163e-11 3.12221e-11 0 0 2.54801e-11 
0 0 0 0 2.67303e-10 0 0 1.35733e-10 0 
4.03023e-11 1.34217e-10 0 0 0 1.05671e-10 2.25676e-10 0 0 
0 0 0 1.15323e-13 0 0 0 0 2.11219e-11 
0 0 0 0 1.51616e-11 6.52817e-12 0 0 0 
0 0 0 0 0 0 0 0 0 
0 0 0 0 0 0 0 0 0 
0 0 0 0 0 0 0 0 0 
0 0 0 0 0 0 0 0 0 
0 0 0 0 2.70573e-11 0 0 0 0 
0 0 6.30307e-11 0 0 0 0 3.37385e-13 0 
0 1.10176e-11 0 0 4.72326e-11 0 8.68583e-11 0 0 
0 0 2.32478e-10 0 0 8.60246e-11 1.03583e-10 0 0 
0 0 3.23642e-11 0 0 0 0 0 0 
6.87648e-12 0 0 8.335e-11 0 1.11472e-10 0 1.24275e-12 0 
0 0 0 0 0 0 0 0 0 
0 0 0 0 0 0 1.03547e-11 0 2.02749e-11 
0 4.84837e-10 0 0 0 6.65984e-11 0 2.35034e-11 0 
5.57753e-11 0 0 0 0 0 7.71413e-11 0 0 
0 9.28146e-11 0 0 5.19279e-11 0 0 4.42383e-11 0 
0 0 0 0 0 2.49099e-11 0 0 0 
0 0 0 0 1.54144e-11 0 0 0 0 
0 0 0 0 0 0 0 0 0 
0 3.14138e-11 4.88165e-11 0 0 0 0 0 0 
4.14263e-11 0 0 9.18099e-11 0 0 0 0 0 
0 0 0 0 0 3.23441e-11 0 5.28503e-11 0 
5.72904e-11 0 0 2.19525e-10 0 0 0 3.894e-11 0 
1.86593e-12 0 0 0 0 0 0 0 0 
0 0 0 0 0 0 0 0 0 
1.97396e-10 1.73282e-10 2.68614e-08 0 0 1.89249e-10 0 0 0 
0 0 5.33092e-11 0 0 2.20484e-11 0 0 0 
0 0 0 9.15126e-12 0 0 0 0 0 
0 0 0 0 0 0 0 0 0 
0 0 0 0 0 0 0 0 0 
0 0 0 0 0 0 0 0 0 
0 0 0 0 0 0 0 0 0 
0 0 0 0 0 0 0 0 0 
0 0 0 0 0 0 0 5.28372e-11 0 
0 3.19812e-11 0 0 0 2.68541e-08 0 3.86866e-10 1.15213e-10 
0 0 0 0 2.78603e-10 2.97566e-10 0 0 0 
5.29803e-11 1.96353e-10 0 0 1.16156e-10 0 0 0 0 
0 0 0 0 0 0 0 0 0 
0 0 0 3.69451e-11 1.06398e-10 9.64535e-11 0 3.07592e-10 0 
0 1.57546e-11 0 0 0 0 5.15318e-11 0 0 
0 0 8.26509e-14 9.84113e-11 1.38218e-11 0 4.04493e-11 0 0 
0 0 5.35191e-11 0 9.96942e-11 5.74413e-12 2.11325e-11 0 0 
9.75731e-11 0 1.01778e-11 1.85306e-11 0 0 0 5.48414e-11 0 
0 0 0 0 0 0 0 0 0 
0 0 0 0 2.72346e-11 0 3.55569e-11 0 0 
0 0 0 0 0 0 0 0 0 
0 0 0 0 0 0 3.98809e-11 0 0 
0 0 1.26273e-10 0 0 0 0 7.83515e-12 0 
0 0 0 0 0 5.30303e-11 0 0 1.97001e-11 
1.37393e-10 0 0 0 0 0 0 0 1.89186e-10 
2.77737e-10 0 0 0 9.96282e-11 0 0 2.48458e-11 0 
1.03977e-11 0 0 0 0 0 0 0 0 
0 0 0 0 0 0 0 0 0 
1.09761e-10 8.87062e-11 7.34263e-11 0 0 0 0 0 0 
0 0 1.93766e-10 3.08784e-11 4.18276e-11 1.13884e-10 0 3.11629e-08 0 
0 0 0 0 0 0 0 0 0 
0 0 0 0 0 0 0 0 0 
0 0 0 0 0 0 0 0 0 
0 0 0 0 0 0 0 0 0 
0 0 0 0 0 0 0 0 0 
0 0 0 0 0 0 0 0 0 
0 0 0 0 0 0 0 2.40599e-10 4.54884e-11 
0 0 0 0 2.85244e-10 1.5245e-10 2.95524e-13 4.0648e-12 0 
0 3.96362e-11 0 1.87805e-10 0 0 0 0 0 
3.10206e-11 0 0 0 0 0 0 0 0 
0 0 0 0 0 0 0 1.34127e-10 0 
0 1.26527e-10 0 0 0 0 6.04096e-11 0 2.64381e-11 
1.00451e-11 0 0 5.36432e-11 0 3.26418e-11 0 0 0 
0 0 0 0 0 5.30843e-11 2.09016e-10 2.48175e-11 0 
0 0 0 2.14218e-11 0 0 6.56964e-13 1.92605e-11 0 
0 9.63651e-11 0 0 0 0 0 0 0 
0 5.15497e-11 1.27241e-10 0 0 0 0 0 2.15246e-11 
1.61489e-11 0 5.67436e-11 0 0 0 0 0 0 
1.18922e-10 0 0 0 0 0 0 0 9.15503e-11 
0 0 0 0 0 0 0 0 0 
0 0 0 0 0 0 4.31304e-11 8.29378e-11 0 
1.90644e-11 1.00223e-10 0 0 0 0 0 0 0 
1.01047e-10 0 0 0 0 0 0 0 0 
0 2.65327e-08 0 0 0 0 0 4.45797e-11 0 
0 0 0 0 0 0 0 0 0 
2.50234e-11 0 0 0 1.12037e-10 0 0 0 3.3159e-10 
0 0 0 1.4205e-10 0 0 0 0 0 
0 0 8.47812e-11 0 3.5473e-12 0 0 0 0 
0 0 0 4.43156e-11 0 0 0 0 0 
0 0 0 0 0 0 0 0 0 
0 0 0 0 0 0 0 0 0 
0 0 0 0 0 0 0 0 0 
0 0 0 0 0 0 0 0 0 
0 0 0 0 0 5.73109e-12 0 0 0 