# vtk DataFile Version 5.1
vtk output
ASCII
DATASET STRUCTURED_POINTS
DIMENSIONS 250 250 1
SPACING 1 1 1
ORIGIN 0 0 0
POINT_DATA 62500
FIELD FieldData 6
feature_1 1 62500 float
0 0 0 0 0 0 0 0 0 
0 0 0 0 0 0 0 0 0 
0 0 0 0 0 0 0 0 0 
0 0 0 0 0 0 0 0 0 
0 0 0 0 0 0 0 0 0 
0 0 0 0 0 0 0 0 0 
0 0 0 0 0 0 0 0 0 
0 0 0 0 0 0 0 0 0 
0 0 0 0 0 0 0 0 0 
0 0 0 0 0 0 0 0 0 
0 0 0 0 0 0 0 0 0 
0 0 0 0 0 0 0 0 0 
0 0 0 0 0 0 0 0 0 
0 0 0 0 0 0 0 0 0 
0 0 0 0 0 0 0 0 0 
0 0 0 0 0 0 0 0 0 
0 0 0 0 0 0 0 0 0 
0 0 0 0 0 0 0 0 0 
0 0 0 0 0 0 0 0 0 
0 0 0 0 0 0 0 0 0 
0 0 0 0 0 0 0 0 0 
0 0 0 0 0 0 0 0 0 
0 0 0 0 0 0 0 0 0 
0 0 0 0 0 0 0 0 0 
0 0 0 0 0 0 0 0 0 
0 0 0 0 0 0 0 0 0 
0 0 0 0 0 0 0 0 0 
0 0 0 0 0 0 0 0 0 
0 0 0 0 0 0 0 0 0 
0 0 0 0 0 0 0 0 0 
0 0 0 0 0 0 0 0 0 
0 0 0 0 0 0 0 0 0 
0 0 0 0 0 0 0 0 0 
0 0 0 0 0 0 0 0 0 
0 0 0 0 0 0 0 0 0 
0 0 0 0 0 0 0 0 0 
0 0 0 0 0 0 0 0 0 
0 0 0 0 0 0 0 0 0 
0 0 0 0 0 0 0 0 0 
0 0 0 0 0 0 0 0 0 
0 0 0 0 0 0 0 0 0 
0 0 0 0 0 0 0 0 0 
0 0 0 0 0 0 0 0 0 
0 0 0 0 0 0 0 0 0 
0 0 0 0 0 0 0 0 0 
0 0 0 0 0 0 0 0 0 
0 0 0 0 0 0 0 0 0 
0 0 0 0 0 0 0 0 0 
0 0 0 0 0 3.1714e-13 0 0 0 
0 0 0 0 0 0 0 0 0 
0 0 0 0 0 0 0 0 0 
0 0 0 1.64056e-13 0 0 0 0 0 
0 0 0 0 0 0 0 0 0 
0 0 0 0 0 0 0 0 0 
0 0 0 0 0 0 0 0 0 
0 0 0 0 0 0 0 0 0 
0 0 0 0 0 0 0 0 0 
0 0 0 0 0 0 0 0 0 
0 0 0 0 0 0 0 0 0 
0 0 0 0 0 0 0 0 0 
0 0 0 0 0 0 0 0 0 
0 0 0 0 0 0 0 0 0 
0 0 0 0 0 0 0 0 0 
0 0 0 0 0 0 0 0 0 
0 0 0 0 0 0 0 0 0 
0 0 0 0 0 0 0 0 0 
0 0 0 0 0 0 0 0 0 
0 0 0 0 0 0 0 0 0 
0 0 0 0 0 0 0 0 0 
0 0 0 0 0 0 0 0 0 
0 0 0 0 0 0 0 0 0 
0 0 0 0 0 0 0 0 0 
0 0 0 0 0 0 0 0 0 
0 0 0 0 0 0 0 0 0 
0 0 0 0 0 0 0 0 0 
0 0 0 0 0 0 0 0 0 
0 0 0 0 0 0 0 0 0 
0 0 0 0 0 0 0 0 0 
0 0 0 0 0 0 0 0 0 
0 0 0 0 0 0 1.37007e-12 0 0 
0 0 0 0 0 0 0 0 0 
0 0 0 0 0 0 0 0 0 
0 0 0 0 0 0 0 0 0 
0 0 0 0 0 0 0 0 0 
0 0 0 0 0 0 0 0 0 
0 0 0 0 1.77392e-12 0 0 0 0 
0 0 0 0 0 0 0 0 0 
0 0 0 0 0 0 0 0 0 
0 0 0 0 0 0 0 0 0 
0 0 0 0 0 0 0 0 0 
0 0 0 0 0 0 0 0 0 
0 0 0 0 0 0 0 0 0 
0 0 0 0 0 0 0 0 0 
0 0 0 0 0 0 0 0 0 
0 0 0 0 0 0 0 0 0 
0 0 0 0 0 0 0 0 0 
0 0 0 0 0 0 0 0 0 
0 0 0 0 0 0 0 0 0 
0 0 0 0 0 0 0 0 0 
0 0 0 0 0 0 0 0 0 
0 0 0 0 0 0 0 0 0 
0 0 0 0 0 0 0 0 0 
0 0 0 0 0 0 0 0 0 
0 0 0 0 0 0 0 0 0 
0 0 0 0 0 0 0 0 0 
0 0 0 0 0 0 0 0 0 
0 0 0 0 0 0 0 0 0 
0 0 0 0 0 0 0 0 0 
0 0 0 0 0 0 0 0 0 
0 0 0 0 0 0 0 0 0 
0 0 0 0 0 0 0 0 0 
0 0 0 0 0 0 0 0 0 
0 0 0 0 0 0 0 0 0 
0 0 0 0 0 0 0 0 0 
0 0 0 0 0 0 0 0 0 
0 0 0 0 0 0 0 0 0 
0 0 0 0 0 0 0 0 0 
0 0 0 0 0 1.95983e-12 0 0 0 
0 0 0 0 0 0 0 0 0 
0 0 0 0 0 0 0 0 0 
0 0 0 0 0 0 0 0 0 
0 0 0 0 0 0 0 0 0 
0 0 0 0 0 0 0 0 0 
0 0 0 0 0 0 0 0 0 
0 0 0 0 0 0 0 0 0 
0 0 0 0 0 0 0 0 0 
0 0 0 0 0 0 0 0 0 
0 0 0 0 0 0 0 0 1.13864e-12 
0 0 0 0 0 0 0 0 0 
0 0 0 0 0 0 0 0 0 
0 0 0 0 0 0 0 0 0 
0 0 0 0 0 0 0 0 0 
0 0 0 0 0 0 0 0 0 
0 0 0 0 0 0 0 0 0 
0 0 0 0 0 0 0 0 0 
0 0 0 0 0 0 0 0 0 
0 0 0 0 0 0 0 0 0 
0 0 0 0 2.34147e-13 0 0 0 0 
0 0 0 0 0 0 0 0 0 
0 0 0 0 0 0 0 0 0 
0 0 0 0 0 0 0 0 0 
0 0 0 0 0 0 0 0 0 
0 0 0 0 0 0 0 0 0 
0 0 0 0 0 0 0 0 0 
0 0 0 0 0 0 0 0 0 
0 0 0 0 0 0 0 0 0 
0 0 0 0 0 0 0 0 0 
0 0 0 0 0 0 0 0 0 
0 0 0 0 0 0 0 0 0 
0 0 0 0 0 0 0 0 0 
0 0 0 0 0 0 0 0 0 
0 0 0 0 0 0 0 0 0 
0 0 0 0 0 0 0 0 0 
0 0 0 0 0 0 0 0 0 
0 0 0 0 0 0 0 0 0 
0 0 0 0 0 0 0 0 0 
0 0 0 0 0 0 0 0 0 
0 0 0 0 0 0 0 0 0 
0 0 0 0 0 0 0 0 0 
0 0 0 0 0 0 0 0 0 
0 0 0 0 0 0 0 0 0 
0 0 0 0 0 0 0 0 0 
0 0 0 0 0 0 0 0 0 
0 0 0 0 0 0 0 0 0 
0 0 0 0 0 0 0 0 0 
0 0 0 0 0 0 0 0 0 
0 0 0 0 0 0 0 0 0 
0 0 0 0 0 0 0 0 0 
0 0 0 0 0 0 0 0 0 
0 0 0 0 0 0 0 0 0 
0 0 0 0 4.63296e-13 0 0 0 0 
0 0 0 0 0 0 0 0 0 
0 0 0 0 0 0 0 0 0 
0 0 0 0 0 0 0 0 0 
0 0 0 0 0 0 0 0 0 
0 0 0 0 0 0 0 0 0 
0 0 0 0 0 0 0 0 0 
0 0 0 0 0 0 0 0 0 
0 0 0 0 0 0 0 0 0 
0 0 0 0 0 0 0 0 0 
0 0 0 0 0 0 0 0 0 
0 0 0 0 0 0 0 0 0 
0 0 0 0 0 0 0 0 0 
0 0 0 0 0 0 0 0 0 
0 0 0 0 0 0 0 0 0 
0 0 0 0 0 0 0 0 0 
0 0 0 0 0 0 0 0 0 
0 0 0 0 0 0 0 0 0 
0 0 0 0 0 0 0 0 0 
0 0 0 0 0 0 0 0 0 
0 0 0 0 0 0 0 0 0 
0 0 0 0 0 0 0 0 0 
0 0 0 0 0 0 0 0 0 
0 0 0 0 0 0 0 0 0 
0 0 0 0 0 0 0 0 0 
0 0 0 0 0 0 0 0 0 
0 0 0 0 0 0 0 0 0 
0 0 0 0 0 0 0 0 0 
0 0 0 0 0 0 0 0 0 
0 0 0 0 0 0 0 0 0 
0 0 0 0 0 0 0 0 0 
0 0 0 0 0 0 0 0 0 
0 0 0 0 0 0 0 0 0 
0 0 0 0 0 0 0 0 0 
0 0 0 0 0 0 0 0 0 
0 0 0 0 0 0 0 0 0 
0 0 0 0 0 0 0 0 0 
0 0 0 0 0 0 0 0 0 
0 0 0 0 0 0 0 0 0 
0 0 0 0 0 0 0 0 0 
0 0 0 0 0 0 0 0 0 
0 0 0 0 0 0 0 0 0 
0 0 0 0 0 0 0 0 0 
0 0 0 0 0 0 0 0 0 
0 0 0 0 0 0 0 0 0 
0 0 0 0 0 0 0 0 0 
0 0 0 0 0 0 0 0 0 
0 0 0 0 0 0 0 0 0 
0 0 0 0 0 0 0 0 0 
0 0 0 0 0 0 0 0 0 
0 0 0 0 0 0 0 0 0 
0 0 0 0 0 0 0 0 0 
0 0 0 0 0 0 0 0 0 
0 0 0 0 0 0 0 0 0 
0 0 0 0 0 0 0 0 0 
0 0 0 0 0 0 0 0 0 
0 0 0 0 0 0 0 0 0 
0 0 0 0 0 0 0 0 0 
0 0 0 0 0 0 0 0 0 
0 0 0 0 0 0 0 0 0 
0 0 0 0 0 0 0 0 0 
0 0 0 0 0 0 0 0 0 
0 0 0 0 0 0 0 0 0 
0 0 0 0 0 0 0 0 0 
0 0 0 0 0 0 0 0 0 
0 0 0 0 0 0 0 0 0 
0 0 0 0 0 0 0 0 0 
0 0 0 0 0 0 0 0 0 
0 0 0 0 0 0 0 0 0 
0 0 0 0 0 0 0 0 0 
0 0 0 0 0 0 0 0 0 
0 0 0 0 0 0 0 0 0 
0 0 0 0 0 0 0 0 0 
0 0 0 0 0 0 0 0 0 
0 0 0 0 0 0 0 0 0 
0 0 0 0 0 0 0 0 0 
0 0 0 0 0 0 0 0 0 
0 0 0 0 0 0 0 0 0 
0 0 0 0 0 0 0 0 0 
0 0 0 0 0 0 0 0 0 
0 0 0 0 0 0 0 0 0 
0 0 0 0 0 0 0 0 0 
0 0 0 0 0 0 0 0 0 
0 0 0 0 0 0 0 0 0 
0 0 0 0 0 0 0 0 0 
0 0 0 0 0 0 0 0 0 
0 0 0 0 0 0 0 0 0 
0 0 0 0 0 0 0 0 0 
0 0 0 0 0 0 0 0 0 
0 0 0 0 0 0 0 0 0 
0 0 0 0 0 0 0 0 0 
0 0 0 0 0 0 0 0 0 
0 0 0 0 0 0 0 0 0 
0 0 0 0 0 0 0 0 0 
0 0 0 0 0 0 0 0 0 
0 0 0 0 0 0 0 0 0 
0 0 0 0 0 0 0 0 0 
0 0 0 0 0 0 0 0 0 
0 0 0 0 0 0 0 0 0 
0 0 0 0 0 0 0 0 0 
0 0 0 0 0 0 0 0 0 
0 0 0 0 0 0 0 0 0 
0 0 0 0 0 0 0 0 0 
0 0 0 0 0 0 0 0 0 
0 0 0 0 0 0 0 0 0 
0 0 0 0 0 0 0 0 0 
0 0 0 0 0 0 0 0 0 
0 0 0 0 0 0 0 0 0 
0 0 0 0 0 0 0 0 0 
0 0 0 0 0 0 0 0 0 
0 0 0 0 0 0 0 0 0 
0 0 0 0 0 0 0 0 0 
0 0 0 0 0 0 0 0 0 
0 0 0 0 0 2.71398e-12 0 0 0 
0 0 0 0 0 0 0 0 0 
0 0 0 0 0 0 0 0 0 
0 0 0 0 0 0 0 0 0 
0 0 0 0 0 0 0 0 0 
0 0 0 0 0 0 0 0 0 
0 0 0 0 0 0 0 0 0 
0 0 0 0 0 0 0 0 0 
0 0 0 0 0 0 1.29738e-13 0 0 
0 0 0 0 0 0 0 0 0 
0 0 0 0 0 0 0 0 0 
0 0 0 0 0 0 0 0 0 
0 0 0 0 0 0 0 0 0 
0 0 0 0 0 0 0 0 0 
0 0 0 0 0 0 0 0 0 
0 0 0 0 0 0 0 0 0 
0 0 0 0 0 0 0 0 0 
0 0 0 0 0 0 0 0 0 
0 0 0 0 0 0 0 0 0 
0 0 0 0 0 0 0 0 0 
0 0 0 0 0 0 0 0 0 
0 0 0 0 0 0 0 0 0 
0 0 0 0 0 0 0 0 0 
0 0 0 0 0 0 0 0 0 
0 0 0 0 0 0 0 0 0 
0 0 0 0 0 0 0 0 0 
0 0 0 0 0 0 0 0 0 
1.20716e-12 0 0 0 0 0 0 0 0 
0 0 0 0 0 0 0 0 0 
0 0 0 0 0 0 0 0 0 
0 0 0 0 0 0 0 0 0 
0 0 0 0 0 0 0 0 0 
0 0 0 0 0 0 0 0 0 
0 0 0 0 0 0 0 0 0 
0 0 0 0 0 0 0 0 0 
0 0 0 0 0 0 0 0 0 
0 0 0 0 0 0 0 0 0 
0 0 0 0 0 0 0 0 0 
0 0 0 0 0 0 0 0 0 
0 0 0 0 0 0 0 0 0 
0 0 0 0 0 0 0 0 0 
0 0 0 0 0 0 0 0 0 
0 0 0 0 0 0 0 0 0 
0 0 0 0 0 0 0 0 0 
0 0 0 0 0 0 0 0 0 
1.39872e-13 0 0 0 0 0 0 0 0 
0 0 0 0 0 0 0 0 0 
0 0 0 0 0 0 0 0 0 
0 0 0 0 0 0 0 0 0 
0 0 0 1.82511e-12 0 0 0 0 0 
0 0 0 0 0 0 0 0 0 
0 0 0 0 0 0 0 1.34752e-12 0 
0 0 0 0 0 0 0 0 0 
0 0 0 0 0 0 0 0 0 
0 0 0 0 0 0 0 0 0 
0 0 0 0 0 0 0 0 0 
0 0 0 0 0 0 0 0 0 
0 0 0 0 0 0 0 0 0 
0 0 0 0 0 0 0 0 0 
0 0 0 0 0 0 0 0 0 
0 0 0 0 0 0 0 0 0 
0 0 0 0 0 0 0 0 0 
0 0 0 0 0 0 0 0 0 
0 0 0 0 0 0 0 0 0 
0 0 0 0 0 0 0 0 0 
0 0 0 0 0 0 0 0 0 
0 0 0 0 0 0 0 0 0 
0 0 0 0 0 0 0 0 0 
0 0 0 0 8.54327e-13 0 0 0 0 
0 0 0 0 0 0 0 0 0 
0 0 0 0 0 0 0 0 0 
0 0 0 0 0 0 0 0 0 
0 0 0 0 0 0 0 0 0 
0 0 0 0 0 0 0 0 0 
0 0 0 0 0 0 0 0 0 
0 0 0 0 0 0 0 0 0 
0 0 0 0 0 0 0 0 0 
0 0 0 0 0 0 0 0 0 
0 0 0 0 0 0 0 0 0 
0 0 0 0 0 0 0 0 0 
0 0 0 0 0 0 0 0 0 
0 0 0 0 0 0 0 0 0 
0 0 0 0 0 0 0 0 0 
0 0 0 0 0 0 0 0 0 
0 0 0 0 0 0 0 0 0 
0 0 0 0 0 0 0 0 0 
0 0 0 0 0 0 0 0 0 
0 0 0 0 0 0 0 0 0 
0 0 0 0 0 0 0 0 0 
0 0 0 0 0 0 0 0 0 
0 0 0 0 0 0 0 0 0 
0 0 0 0 0 0 0 0 0 
0 0 0 0 0 0 0 0 0 
0 0 0 0 0 0 0 0 0 
0 0 0 0 0 0 0 0 0 
0 0 0 0 0 0 0 0 0 
0 0 0 0 0 0 0 0 0 
0 0 0 0 0 0 0 0 0 
0 0 0 0 0 0 0 0 0 
0 0 0 0 0 0 0 0 0 
0 0 0 0 0 0 0 0 0 
0 0 0 0 0 0 0 0 0 
0 0 0 0 0 0 0 0 0 
0 0 0 0 0 0 0 0 0 
0 0 0 0 0 0 0 0 0 
0 0 0 0 0 0 0 0 0 
0 0 0 0 0 0 0 0 0 
0 0 0 0 0 0 0 0 0 
0 0 0 0 0 0 0 0 0 
0 0 0 0 0 0 0 0 0 
0 0 0 0 0 0 0 0 0 
0 0 0 0 0 0 0 0 0 
0 0 0 0 0 0 0 0 0 
0 0 0 0 0 0 0 0 0 
0 0 0 0 0 0 0 0 0 
0 0 0 0 0 0 0 0 0 
0 0 0 0 0 0 0 0 0 
0 0 0 0 0 0 0 0 0 
0 0 0 0 0 0 0 0 0 
0 0 0 0 0 0 0 0 0 
0 0 0 0 0 0 0 0 0 
0 0 0 0 0 0 0 0 0 
0 0 0 0 0 0 0 0 0 
0 0 0 0 0 0 0 0 0 
0 0 0 0 0 0 0 0 0 
0 0 0 0 0 0 0 0 0 
0 0 0 0 0 0 0 0 0 
0 0 0 0 0 0 0 0 0 
0 0 0 0 0 0 0 0 0 
0 0 0 0 0 0 0 0 0 
0 0 0 0 0 0 0 0 0 
0 0 0 0 0 0 0 0 0 
0 0 0 0 0 0 0 0 0 
0 0 0 0 0 0 0 0 0 
0 0 0 8.6956e-13 0 0 0 0 0 
0 0 0 0 0 0 0 0 0 
0 0 0 0 0 0 0 0 0 
0 0 0 0 0 0 0 0 0 
0 0 0 0 0 0 0 0 0 
0 0 0 0 0 0 0 0 0 
0 0 0 0 0 0 0 0 0 
0 0 0 0 0 0 0 0 0 
0 0 0 0 0 0 0 0 0 
0 0 0 0 0 0 0 0 0 
0 0 0 0 0 0 0 0 0 
0 0 0 0 0 0 0 0 6.94981e-13 
0 0 0 0 0 0 0 5.74018e-13 0 
0 0 0 0 0 0 0 0 0 
0 0 0 0 0 0 0 0 0 
0 0 0 0 0 0 0 0 0 
0 0 0 0 0 0 0 0 0 
0 0 0 0 0 0 0 0 0 
0 0 0 0 0 0 0 0 0 
0 0 0 0 0 0 0 0 0 
0 0 0 0 0 0 0 0 0 
0 0 0 0 0 0 0 0 0 
0 0 0 0 0 0 0 0 0 
0 0 0 0 0 0 0 0 0 
0 0 0 0 0 0 0 0 0 
0 0 0 0 0 0 0 0 0 
0 0 0 0 0 0 0 0 0 
0 0 1.17063e-13 0 0 0 0 0 0 
0 0 0 0 0 0 0 0 0 
0 0 0 0 0 0 0 0 0 
0 0 0 1.72242e-12 0 0 0 0 0 
0 0 0 0 0 0 0 0 0 
0 0 0 0 0 0 0 0 0 
0 0 0 5.23076e-13 0 0 0 0 0 
0 0 0 0 0 0 0 0 0 
3.87518e-12 0 0 0 0 0 0 0 0 
0 0 0 0 0 0 0 0 0 
0 0 0 0 0 0 0 0 9.56327e-13 
0 0 0 0 0 0 0 0 0 
0 0 0 0 0 0 0 0 0 
0 0 0 0 0 0 0 0 0 
0 0 0 0 0 0 0 0 0 
0 0 0 0 0 0 0 0 0 
0 0 0 0 8.71589e-12 0 0 0 0 
0 0 0 0 0 0 0 0 0 
0 0 0 0 0 0 0 0 0 
0 0 0 0 0 0 0 0 0 
0 0 0 0 0 0 0 0 0 
0 0 0 0 0 0 0 0 0 
0 0 0 0 0 0 0 0 0 
0 0 0 0 0 0 0 0 0 
0 0 0 0 0 0 0 0 0 
0 0 0 0 0 0 0 0 0 
0 0 0 0 0 0 0 0 0 
0 0 0 0 0 0 0 0 0 
0 0 0 0 0 0 0 0 0 
0 0 0 0 0 0 0 0 0 
0 0 0 0 0 0 0 0 0 
0 0 0 0 0 0 0 0 0 
0 0 0 0 0 0 0 0 0 
0 0 0 0 0 0 0 0 0 
0 0 0 0 0 0 0 0 0 
0 0 0 0 0 0 0 0 0 
0 9.84905e-12 0 0 0 0 0 0 0 
0 0 0 0 0 0 0 0 0 
0 0 0 0 0 0 0 0 0 
0 0 0 0 0 0 0 0 0 
0 0 0 0 0 0 0 0 0 
0 0 0 0 0 0 0 0 0 
0 0 0 0 0 0 0 0 0 
0 0 0 0 0 0 0 0 0 
0 0 0 0 0 0 0 0 0 
0 0 0 1.26304e-12 0 0 0 0 0 
0 0 0 0 0 0 0 0 0 
0 0 0 0 0 0 0 0 0 
0 0 0 0 0 0 0 0 0 
0 0 0 0 0 0 0 0 0 
0 0 0 0 0 0 0 0 0 
0 0 0 0 0 0 0 0 0 
0 0 0 0 0 0 0 0 0 
0 0 0 0 0 0 0 0 0 
0 0 0 0 0 0 0 0 0 
0 0 0 0 0 0 0 0 0 
0 0 0 0 0 0 0 1.37319e-13 0 
0 0 0 0 0 0 0 0 0 
0 0 0 0 0 0 0 0 0 
0 0 0 0 0 0 0 0 0 
0 0 0 0 0 0 0 0 0 
0 0 0 0 0 0 0 0 0 
0 0 0 0 0 0 0 0 0 
0 0 0 0 0 0 0 0 0 
0 0 0 0 0 0 0 0 0 
0 0 0 0 0 0 0 0 0 
0 0 0 9.68317e-12 0 0 0 0 0 
0 0 0 0 0 0 0 0 0 
0 0 0 0 0 4.23144e-13 0 0 0 
0 0 0 0 0 0 0 0 0 
0 0 0 0 0 0 0 0 0 
0 0 4.15086e-12 0 0 0 0 0 0 
0 0 0 0 0 0 0 0 0 
0 0 0 0 0 0 0 0 0 
0 0 0 0 0 0 0 0 0 
0 0 0 0 0 0 0 0 0 
0 0 0 0 0 0 0 0 0 
0 0 0 0 0 0 0 0 0 
0 0 0 0 0 0 0 0 0 
0 0 0 0 0 0 0 0 0 
0 0 0 0 0 0 0 0 0 
0 0 0 0 0 0 0 0 0 
7.45171e-13 0 0 0 0 0 0 0 0 
0 0 0 0 0 0 0 0 0 
0 0 0 0 0 0 0 0 0 
0 0 0 0 0 0 0 0 0 
0 0 0 0 0 0 0 0 0 
0 0 0 0 0 0 0 0 0 
0 0 0 0 0 0 0 0 0 
0 0 0 0 0 0 0 0 0 
0 0 0 0 0 8.28131e-12 0 0 0 
0 0 0 0 0 0 0 0 0 
0 0 0 0 0 0 0 0 0 
0 0 0 0 0 0 0 0 8.19172e-12 
0 0 0 0 0 0 0 0 0 
1.44227e-12 0 0 0 0 0 0 0 0 
0 0 0 0 0 0 0 1.08033e-12 0 
0 0 0 0 0 0 0 0 0 
0 0 0 0 0 0 0 0 0 
0 0 0 0 0 0 0 0 0 
0 0 0 0 0 6.08571e-12 0 0 0 
0 0 0 0 0 0 0 0 0 
0 0 0 0 0 0 0 0 0 
0 0 0 0 0 0 0 0 0 
0 0 0 0 0 0 0 0 0 
0 0 0 0 0 0 0 0 0 
0 0 0 0 0 0 0 0 0 
0 0 0 0 0 0 0 0 0 
0 0 0 0 0 0 0 0 0 
0 0 0 0 0 0 0 0 0 
0 0 0 0 0 0 0 0 0 
0 0 0 0 0 0 0 0 0 
0 0 0 0 0 0 0 0 0 
0 0 0 0 0 0 0 0 0 
0 0 0 0 0 0 0 0 0 
0 0 0 0 0 0 0 0 0 
0 0 0 0 0 0 0 0 0 
0 0 0 0 0 0 0 0 0 
0 0 0 0 0 0 0 0 0 
1.59495e-11 0 0 0 2.68231e-11 1.3278e-11 0 0 0 
0 0 0 0 0 0 0 0 0 
0 1.82511e-11 0 0 0 0 0 0 1.9071e-11 
0 0 0 0 0 0 0 0 0 
0 0 0 0 0 0 0 0 0 
0 0 0 0 0 0 0 0 0 
0 0 0 0 0 0 0 0 0 
0 0 0 0 0 0 0 0 0 
0 0 0 0 0 0 0 0 0 
0 0 0 0 0 0 0 0 0 
0 0 0 0 0 0 0 0 0 
0 0 0 0 0 0 0 0 0 
0 0 0 0 0 0 0 0 0 
0 0 0 0 0 0 0 0 0 
0 0 0 0 0 0 0 0 0 
0 2.57293e-12 0 0 0 0 0 0 0 
0 0 0 0 0 0 0 0 0 
0 0 1.81539e-13 0 0 0 0 0 0 
0 0 0 0 0 0 0 0 0 
0 0 0 0 0 0 0 0 0 
0 0 0 0 0 0 0 0 0 
0 0 0 0 0 0 0 0 0 
0 0 0 0 0 0 0 0 0 
0 0 0 0 0 0 0 0 0 
0 0 0 0 0 0 0 0 0 
0 0 0 0 0 0 0 0 0 
5.57878e-13 0 9.75347e-12 0 0 0 0 0 0 
0 0 0 0 0 1.8597e-11 1.78056e-11 0 0 
0 0 0 0 0 0 0 0 0 
0 0 0 0 0 0 0 0 0 
0 0 0 0 0 0 0 0 0 
7.0227e-12 0 0 0 0 2.03142e-11 0 0 0 
0 0 0 0 0 1.43039e-11 0 0 0 
0 0 0 0 0 0 0 0 0 
0 0 0 0 0 0 0 0 0 
0 0 0 0 0 0 0 0 0 
0 0 0 0 0 1.56626e-11 0 1.56532e-11 0 
0 0 0 0 0 0 0 7.10206e-13 0 
0 0 0 0 0 0 0 0 0 
0 0 0 0 0 0 0 0 0 
1.33799e-12 0 0 0 0 0 0 0 0 
0 0 0 0 0 0 0 0 0 
0 0 0 0 0 0 0 0 0 
0 0 0 0 0 0 0 7.92514e-12 0 
0 0 0 0 0 0 0 0 0 
0 0 0 0 0 0 0 0 0 
0 0 0 0 0 0 0 0 0 
0 0 0 0 0 0 0 0 0 
0 0 0 0 0 0 0 0 0 
0 0 0 0 0 0 0 0 0 
0 0 0 0 0 0 0 0 0 
0 0 0 0 0 0 0 0 0 
0 0 0 0 0 0 0 0 0 
0 0 0 0 0 0 0 0 0 
0 0 0 0 0 0 0 0 0 
0 0 0 0 0 1.28081e-11 0 2.52611e-11 0 
0 0 0 0 0 0 0 0 0 
0 0 0 0 2.77732e-11 0 3.48136e-11 0 0 
7.7188e-12 0 0 0 0 0 0 0 0 
3.18615e-11 0 0 0 0 9.48348e-14 0 0 0 
0 1.84191e-11 1.92305e-11 0 0 0 0 0 0 
0 0 0 0 0 0 0 0 0 
0 0 0 0 0 0 0 0 0 
0 0 0 0 0 0 7.02199e-12 0 0 
0 0 0 4.72524e-12 0 0 0 0 0 
0 0 0 0 0 0 0 0 0 
0 0 0 0 0 0 0 0 0 
0 0 0 0 0 0 0 0 0 
0 0 0 0 0 0 0 0 0 
0 1.00531e-13 0 0 0 0 0 0 0 
0 0 0 0 0 0 0 0 0 
0 0 4.17449e-12 0 0 0 0 0 0 
0 0 0 0 0 0 0 0 0 
0 0 0 0 0 0 0 0 0 
0 0 0 0 0 0 0 0 0 
0 0 0 0 0 0 0 0 0 
0 0 0 0 0 0 0 0 0 
0 0 0 0 0 0 0 0 0 
0 0 0 0 1.03121e-14 0 0 0 0 
0 0 0 0 0 0 0 0 0 
0 0 0 0 0 0 0 0 0 
0 0 1.88005e-11 1.29104e-11 0 0 0 9.67517e-12 0 
0 0 0 0 0 0 0 0 0 
0 2.32645e-11 0 5.33661e-12 0 0 2.4597e-12 0 0 
0 0 1.11992e-11 0 0 0 0 0 0 
0 0 0 0 0 0 0 0 0 
0 0 0 0 0 0 0 8.03911e-12 0 
0 0 0 0 0 0 0 0 0 
0 3.21166e-11 0 0 0 0 0 0 0 
1.37574e-11 0 0 0 0 0 0 0 0 
0 0 0 0 0 0 0 0 0 
9.15203e-12 0 0 0 0 0 0 1.12906e-11 0 
0 0 0 0 0 0 1.3219e-11 0 0 
0 0 0 0 0 0 0 0 0 
0 0 0 0 0 0 0 0 0 
0 0 0 0 0 0 0 0 0 
0 0 0 0 0 0 0 0 0 
0 0 0 0 0 0 0 0 0 
0 0 0 0 0 0 0 0 1.06636e-11 
0 0 0 1.3164e-11 0 0 0 0 0 
0 0 0 0 0 0 0 0 0 
0 0 0 0 0 0 0 0 0 
0 0 0 0 0 0 0 0 0 
0 0 0 0 0 0 0 0 0 
0 0 0 0 0 0 0 0 0 
0 0 0 0 0 0 0 0 0 
0 0 0 0 0 0 0 0 0 
0 0 0 0 0 0 0 0 0 
0 0 2.18798e-13 0 0 0 0 0 0 
0 0 0 0 0 0 0 0 0 
0 0 8.97767e-12 1.81239e-11 0 1.72444e-11 0 0 0 
3.8949e-11 0 4.44211e-11 0 0 0 0 0 0 
2.31028e-11 0 0 0 0 0 0 0 0 
0 2.5052e-11 0 0 0 0 0 0 0 
0 0 0 0 0 0 0 0 0 
0 0 0 0 0 0 0 0 0 
4.17577e-11 0 0 2.78922e-12 0 1.16113e-11 0 0 0 
0 0 0 0 0 0 8.10311e-12 0 0 
0 0 0 0 0 0 0 0 0 
3.39678e-11 0 0 0 0 0 0 0 0 
0 0 0 0 0 0 0 0 0 
0 0 0 1.57456e-12 0 0 1.38633e-11 0 0 
0 0 0 0 0 0 0 0 0 
0 0 0 0 0 0 0 0 0 
0 0 0 0 0 0 0 0 0 
0 0 0 0 0 0 0 0 0 
0 0 0 3.28175e-12 0 0 0 0 0 
0 0 0 0 0 0 0 0 0 
1.4235e-11 0 0 0 0 0 0 0 0 
0 0 0 0 0 0 0 0 0 
0 0 0 0 0 0 0 0 0 
0 0 0 0 0 0 0 0 0 
0 0 0 0 0 0 0 0 0 
0 0 0 0 0 0 0 0 0 
0 0 0 0 0 0 0 0 2.09675e-12 
0 0 0 0 0 0 8.65866e-12 0 0 
2.72146e-11 0 4.30606e-11 0 0 0 0 0 0 
0 0 0 0 0 0 0 0 0 
0 0 0 0 2.33997e-11 0 2.37258e-11 0 0 
2.21055e-11 2.84888e-11 0 0 0 4.14129e-11 0 0 0 
0 0 0 0 0 0 0 0 0 
0 0 0 2.67381e-11 7.17697e-11 0 0 2.70313e-11 0 
5.05768e-11 0 0 0 0 0 0 0 0 
0 3.82555e-11 0 0 0 0 0 0 0 
0 0 0 0 1.13664e-11 0 0 0 1.72973e-11 
0 0 0 0 0 0 0 0 0 
0 0 0 0 0 0 0 0 0 
0 0 0 5.44731e-11 2.15379e-11 0 0 0 0 
0 0 0 0 6.79369e-12 0 1.16673e-12 0 0 
0 1.15858e-11 0 0 0 0 0 0 0 
0 0 1.48241e-11 0 0 0 0 0 0 
0 0 0 0 0 0 0 0 0 
0 0 0 0 0 0 0 0 0 
0 0 0 0 0 0 0 0 0 
0 0 0 0 0 0 0 0 2.82053e-11 
0 0 0 0 0 0 0 0 0 
0 0 0 0 0 0 0 0 0 
0 0 0 0 0 0 0 0 0 
0 0 1.02543e-12 0 0 0 0 0 0 
0 0 0 0 0 0 0 0 0 
0 0 0 0 0 0 0 0 0 
0 0 0 0 0 0 0 0 0 
0 0 0 0 0 0 0 0 0 
0 0 0 0 0 0 0 0 0 
3.31746e-11 0 0 0 5.67962e-11 0 0 0 0 
0 0 0 0 0 0 0 0 0 
0 0 9.68037e-12 1.91689e-11 0 0 0 0 0 
0 0 0 0 2.48901e-11 0 0 0 0 
0 0 0 0 0 0 0 0 4.12506e-12 
2.12499e-11 0 6.00287e-11 1.07117e-10 0 0 0 0 0 
0 0 0 0 0 0 0 0 0 
4.54215e-11 5.06136e-11 0 0 6.40425e-11 0 1.46222e-11 0 0 
4.30327e-11 0 0 0 0 0 0 0 0 
0 0 0 0 2.54565e-11 0 0 0 0 
0 4.94616e-12 0 0 0 0 0 0 0 
0 0 0 7.3135e-12 4.34013e-11 0 0 7.03673e-12 0 
1.05851e-11 0 0 1.49303e-11 0 0 0 0 0 
0 0 0 0 0 0 0 0 0 
0 6.90603e-12 9.87994e-12 0 0 0 0 0 0 
0 2.60896e-11 0 0 0 0 0 0 0 
0 0 0 0 0 0 0 0 0 
0 0 0 0 0 0 0 6.83097e-12 0 
0 1.38246e-11 0 0 0 0 0 0 0 
0 0 0 0 1.85552e-12 0 0 0 0 
0 0 0 0 0 0 0 0 0 
0 0 0 0 0 0 0 0 0 
0 0 0 0 0 0 0 0 0 
0 0 0 0 0 0 0 0 0 
0 0 0 0 0 0 0 0 0 
0 0 0 0 0 0 0 0 0 
0 0 0 0 0 1.39522e-11 0 0 0 
0 0 0 0 9.59784e-12 0 0 0 0 
0 0 4.47111e-11 0 0 0 0 4.88982e-11 0 
0 0 0 0 0 1.60111e-11 0 0 0 
0 0 0 0 9.16254e-11 0 2.08969e-10 0 0 
0 0 5.05278e-11 3.96538e-11 1.99341e-11 0 0 3.23739e-11 0 
0 0 0 0 0 4.17346e-12 0 0 7.70462e-11 
0 0 0 0 0 0 8.09466e-11 0 0 
0 0 0 0 7.42237e-11 0 0 6.00967e-11 0 
0 0 0 0 0 2.11547e-11 0 0 0 
3.17888e-11 0 0 0 0 0 2.33932e-11 0 0 
0 0 0 0 0 0 0 0 0 
0 0 0 0 8.73896e-11 0 1.37807e-10 0 0 
0 3.9408e-11 0 0 0 0 3.2982e-11 0 0 
6.69629e-11 0 4.72444e-11 0 0 2.17531e-11 0 0 0 
0 0 0 0 1.8308e-11 0 0 0 0 
0 0 2.54784e-11 3.34189e-11 0 0 0 0 0 
0 0 0 0 0 0 0 0 0 
0 0 0 0 0 0 0 0 0 
0 0 0 0 0 0 0 0 0 
0 0 2.54137e-11 3.52344e-12 0 0 0 3.28613e-11 0 
0 0 0 0 0 0 0 0 0 
0 0 0 0 0 0 0 0 0 
0 0 0 0 0 0 0 0 0 
0 0 0 0 0 0 0 0 0 
0 0 0 0 0 0 0 0 0 
0 0 0 0 0 0 0 0 0 
0 0 0 0 0 0 0 3.47649e-11 0 
0 0 0 0 1.16625e-11 8.05448e-12 0 0 0 
0 0 0 0 0 5.01448e-11 0 0 0 
0 2.48761e-10 0 0 6.69553e-11 0 0 0 0 
3.1743e-12 0 0 1.67399e-11 0 0 0 0 0 
0 0 0 2.0561e-10 2.42307e-08 0 0 0 4.23949e-11 
0 2.83495e-11 0 0 0 0 0 0 0 
0 0 0 0 2.53565e-10 0 1.08219e-12 0 4.0873e-11 
0 1.27422e-11 0 2.80823e-11 0 0 0 0 6.64014e-11 
0 0 6.6753e-14 0 0 0 0 0 0 
0 0 0 0 0 0 0 0 3.78872e-11 
0 0 0 0 1.38372e-11 0 0 0 0 
0 0 4.95697e-11 0 0 0 0 0 0 
0 0 6.42883e-11 7.07722e-11 0 0 0 0 0 
1.30686e-10 1.54982e-11 0 0 0 9.3861e-11 5.24509e-11 0 0 
0 0 0 0 0 0 0 0 0 
0 1.9824e-11 0 0 0 0 0 1.67836e-12 0 
1.44136e-11 0 0 0 1.84304e-13 2.3815e-11 0 0 0 
0 0 0 0 0 0 0 0 0 
0 0 0 0 0 0 0 1.21945e-11 0 
0 0 1.81234e-11 0 0 0 0 0 0 
0 0 0 6.91603e-11 0 3.76362e-11 0 0 0 
0 0 0 0 0 0 0 0 0 
0 0 0 0 0 0 0 0 0 
0 0 0 0 0 0 0 0 0 
0 0 0 0 0 0 0 0 0 
0 0 0 0 0 0 0 0 0 
0 0 0 0 0 0 0 0 0 
0 0 0 0 2.19202e-11 1.19147e-11 0 0 6.26655e-11 
0 0 0 4.8927e-11 4.49191e-12 2.93879e-11 0 0 0 
0 0 0 0 0 0 0 0 0 
0 3.46475e-11 0 0 0 2.80236e-11 7.15803e-11 0 7.37949e-12 
0 1.2297e-11 0 0 8.4287e-12 1.82752e-11 4.83242e-11 0 0 
0 0 0 0 0 0 4.72093e-11 0 2.63186e-11 
0 0 0 0 0 0 0 2.47361e-11 5.51219e-11 
3.46862e-11 1.34249e-10 2.53297e-08 0 0 0 0 0 0 
2.62013e-11 0 0 0 2.62963e-08 0 0 1.27372e-10 0 
0 8.3472e-12 5.64407e-11 0 2.71237e-11 1.02414e-10 1.42072e-10 0 0 
0 0 0 5.30119e-11 3.29622e-11 9.88952e-12 0 0 0 
0 0 0 2.27034e-11 0 0 0 0 0 
7.58265e-12 0 1.16246e-10 5.66192e-11 0 0 0 0 0 
0 0 0 2.50797e-08 0 0 0 3.05672e-11 0 
8.97161e-11 0 0 1.83854e-10 5.51723e-11 0 0 7.00212e-11 8.15253e-11 
0 0 3.22335e-11 0 0 3.68264e-11 0 0 0 
0 4.27911e-11 0 0 2.13561e-11 0 0 0 0 
0 0 0 0 0 0 0 3.05421e-11 0 
0 0 0 0 0 0 0 0 0 
0 0 0 0 0 0 0 0 0 
0 0 0 0 0 0 0 0 1.39389e-12 
0 0 0 0 0 0 0 0 0 
0 0 1.01942e-11 0 0 0 0 0 0 
0 0 0 0 0 0 0 0 0 
0 0 0 0 0 0 0 0 0 
0 0 0 0 0 0 0 0 0 
0 0 0 0 0 0 0 5.46351e-13 0 
0 0 0 0 0 0 0 0 0 
1.66763e-11 0 0 0 0 8.26094e-11 8.51997e-11 0 0 
0 2.08681e-11 0 0 0 0 0 0 0 
0 0 0 0 0 1.12017e-11 0 0 0 
0 0 0 0 0 0 3.87605e-11 0 0 
0 0 0 0 1.41353e-11 0 8.12664e-11 8.12688e-11 0 
0 0 1.05119e-10 8.06384e-11 0 0 0 0 0 
0 0 0 0 4.16231e-12 4.27901e-11 0 0 0 
1.32343e-10 0 0 0 1.48863e-10 0 0 0 0 
2.71971e-11 0 1.82845e-10 0 0 0 0 0 5.86316e-11 
2.78499e-11 0 8.07127e-11 2.76481e-11 0 0 2.45409e-08 0 0 
3.82326e-11 0 0 0 0 1.58295e-11 2.26323e-11 0 0 
0 0 4.51732e-11 0 0 8.04175e-11 7.36553e-11 0 0 
1.00234e-10 7.717e-11 2.68308e-11 0 0 0 0 0 1.33054e-10 
0 0 0 3.21662e-11 0 1.7738e-10 0 0 0 
1.13105e-10 0 0 0 5.27677e-11 6.35212e-11 0 4.62981e-12 0 
0 0 7.31169e-12 3.10362e-11 0 0 0 0 0 
0 0 0 0 0 2.8225e-11 0 8.74557e-11 0 
0 0 6.40396e-11 0 3.75293e-11 0 0 0 0 
0 0 0 0 0 0 0 0 0 
0 8.34584e-12 0 0 0 0 0 2.1348e-11 0 
0 0 2.19925e-11 9.54856e-11 1.70798e-11 0 0 0 0 
0 5.82481e-11 0 3.50508e-11 3.27336e-11 0 0 0 1.2701e-11 
0 2.43354e-11 0 0 0 0 0 0 0 
0 0 0 0 0 0 0 0 0 
0 0 0 0 0 0 0 0 0 
0 0 0 0 0 0 0 0 0 
0 0 0 0 0 0 0 0 0 
0 0 0 0 0 0 0 0 0 
0 3.9565e-12 0 5.31836e-11 0 0 0 0 0 
0 0 0 4.47742e-11 4.91035e-11 0 0 0 0 
0 2.61714e-08 0 2.41699e-10 0 0 8.55152e-12 0 0 
0 1.31152e-10 0 0 0 0 0 0 0 
3.11081e-11 0 0 0 0 3.40985e-11 7.3642e-11 0 0 
0 0 0 0 8.86717e-12 0 0 0 0 
0 0 0 0 0 0 5.00881e-11 0 0 
0 0 9.5009e-11 0 3.21976e-11 0 0 0 0 
0 0 0 0 0 0 5.4996e-11 1.11064e-11 0 
0 1.22898e-10 0 0 0 0 3.67535e-10 0 0 
0 0 0 0 0 0 0 1.9437e-11 0 
4.8099e-13 0 0 0 0 2.27557e-10 0 0 5.55057e-11 
0 0 0 4.03771e-11 4.88596e-11 2.78032e-11 0 0 0 
1.29661e-10 0 0 0 0 0 2.71551e-08 2.71583e-10 0 
0 0 1.25175e-10 0 0 9.65875e-11 0 0 0 
1.13819e-11 0 0 0 0 1.25404e-11 0 0 0 
0 5.78206e-11 1.23257e-10 0 0 0 0 4.19834e-11 6.76061e-11 
0 0 0 0 0 0 0 1.19485e-11 0 
0 0 0 0 7.97436e-12 0 0 0 0 
0 0 0 0 3.35345e-11 0 0 0 0 
0 0 7.87849e-11 0 0 0 0 0 0 
0 0 0 5.5006e-11 0 0 0 0 0 
0 0 8.1921e-12 0 0 4.72769e-12 0 0 0 
0 0 0 0 0 0 0 0 0 
0 0 0 0 0 0 0 0 0 
0 0 0 0 0 0 0 0 0 
0 0 0 0 0 0 0 0 0 
0 0 4.8154e-12 0 0 0 0 4.22053e-11 0 
5.48644e-13 6.57586e-11 0 0 2.4621e-08 0 3.36217e-11 0 0 
3.67588e-11 0 3.36066e-11 0 0 0 0 0 0 
3.61609e-10 0 0 0 0 1.88769e-11 1.4288e-10 0 0 
1.54703e-10 0 0 0 8.78553e-11 8.8356e-12 0 0 0 
8.23493e-12 0 4.00272e-11 1.17672e-11 0 0 3.90544e-11 0 0 
0 0 0 2.21332e-11 0 2.36377e-11 0 2.33909e-11 0 
0 0 0 0 0 2.48868e-10 0 0 0 
0 3.34729e-11 6.44926e-11 1.02603e-10 0 0 1.66801e-10 0 0 
4.12563e-11 0 0 0 0 0 1.03037e-10 9.81281e-11 0 
1.44771e-10 0 1.62672e-10 0 0 0 0 6.4311e-11 0 
0 0 1.85053e-11 0 0 0 0 0 0 
4.66907e-11 0 0 2.43626e-08 1.6549e-10 0 1.06678e-10 0 0 
0 0 0 0 0 1.0535e-10 0 0 0 
2.98614e-12 7.16593e-12 0 0 0 1.86453e-10 0 0 1.98767e-10 
0 0 0 0 0 0 7.36133e-11 0 3.40167e-11 
0 0 0 0 0 0 0 0 1.21914e-10 
0 0 0 6.99122e-11 1.61412e-10 0 0 0 0 
0 0 0 0 0 0 0 4.39996e-12 0 
0 0 0 0 0 0 0 0 4.75398e-12 
0 0 0 0 0 0 1.25266e-10 0 9.19042e-11 
0 0 0 2.48231e-08 0 0 0 0 7.42782e-11 
0 0 3.62324e-11 0 1.98049e-11 0 9.47818e-12 0 0 
0 1.00562e-11 0 0 0 0 0 0 0 
0 0 0 0 0 0 0 0 0 
0 0 0 0 0 0 0 0 0 
0 0 0 0 0 0 0 0 0 
0 0 0 0 0 0 0 0 0 
0 0 0 0 0 0 0 0 4.78777e-12 
0 1.82582e-10 8.7936e-11 1.24911e-10 3.40562e-11 0 0 0 0 
0 0 0 0 0 0 0 7.58794e-13 0 
2.26152e-10 0 0 9.80025e-12 0 1.20037e-10 1.51881e-10 4.55958e-11 0 
0 0 0 0 0 0 0 0 0 
2.85452e-11 0 0 0 0 3.50868e-11 0 7.10774e-11 0 
0 0 0 0 2.13255e-11 0 0 1.87141e-11 0 
6.49127e-11 0 0 0 1.54868e-10 1.36235e-12 4.83394e-11 0 0 
2.98485e-10 0 0 3.08834e-10 0 0 0 0 0 
0 0 0 4.55057e-11 0 6.38883e-11 0 0 2.36948e-10 
0 0 0 0 5.16192e-11 2.55396e-12 0 0 0 
0 0 0 0 0 0 0 0 1.87435e-11 
0 0 0 0 9.63288e-11 0 0 4.46381e-11 0 
7.70585e-11 0 0 3.41569e-11 0 0 0 0 1.03379e-10 
0 0 0 0 1.62142e-10 2.8712e-10 2.69489e-08 0 0 
0 9.08024e-12 0 0 0 7.10988e-11 0 0 0 
0 3.91e-12 0 2.16827e-12 7.67255e-11 0 1.70326e-10 8.69851e-11 0 
0 0 0 0 0 5.46299e-11 0 0 0 
0 0 0 0 0 0 0 0 0 
0 0 0 0 0 0 9.96898e-12 0 0 
0 0 0 3.14016e-11 5.79895e-11 0 0 1.91823e-11 3.31022e-11 
0 0 0 0 0 5.37854e-12 0 7.169e-11 4.62286e-11 
0 0 0 0 0 7.81953e-12 0 0 0 
0 1.12365e-11 0 0 0 0 0 0 0 
0 0 0 0 0 0 0 0 0 
0 0 0 0 0 1.72867e-12 0 0 0 
0 0 0 0 0 0 0 0 0 
0 0 0 0 0 0 0 0 0 
0 0 0 0 0 0 6.92474e-11 1.86645e-11 0 
1.12604e-10 1.99688e-11 3.31769e-11 0 0 0 7.29719e-13 0 1.98246e-10 
0 0 2.74156e-11 0 0 2.7821e-10 0 0 2.17528e-10 
0 0 0 0 2.66451e-08 0 0 4.58978e-11 0 
4.46013e-11 0 0 0 2.87626e-11 0 0 0 0 
0 0 0 0 0 0 0 0 0 
0 0 0 0 0 6.32005e-11 7.12677e-11 2.2726e-11 0 
0 0 0 0 0 0 0 0 0 
0 0 0 0 0 6.04266e-13 0 0 1.2127e-10 
0 1.79459e-11 1.85037e-10 1.102e-10 6.80714e-12 0 2.03193e-11 0 0 
0 0 0 0 0 1.4653e-11 0 0 4.73032e-12 
0 0 0 9.72155e-11 0 0 0 0 3.23145e-11 
3.18835e-11 0 1.49539e-10 0 0 8.01047e-12 0 0 0 
0 8.86887e-11 0 0 0 0 0 1.31226e-10 0 
0 0 0 2.38217e-10 0 0 0 0 0 
0 0 0 0 0 5.313e-11 0 0 0 
0 0 0 3.47267e-11 0 0 0 0 0 
0 0 0 4.97899e-11 5.28125e-11 1.05557e-10 8.50964e-11 0 0 
0 0 0 0 0 0 0 0 0 
0 0 0 3.21593e-11 0 0 0 0 0 
0 0 0 3.53143e-11 0 1.32834e-10 5.20169e-11 0 0 
0 1.97262e-10 0 0 0 0 0 0 0 
0 0 0 0 3.65887e-11 0 0 0 0 
0 0 0 0 0 0 0 0 0 
0 0 0 0 0 0 0 0 0 
0 0 0 0 0 0 0 0 0 
0 3.81831e-13 0 0 0 0 0 0 0 
0 0 0 0 0 0 0 0 0 
0 0 5.28666e-11 0 0 5.11806e-11 0 2.25741e-11 1.46293e-11 
0 0 0 0 0 0 0 0 0 
0 1.44043e-10 0 0 0 0 0 0 0 
0 6.89994e-11 2.63637e-10 0 0 9.48972e-11 0 0 0 
4.36382e-11 0 0 1.39191e-11 0 0 1.86755e-12 0 1.74582e-11 
0 0 0 0 0 0 3.45142e-11 0 0 
0 0 0 7.45749e-11 7.17612e-11 0 0 0 0 
1.78647e-10 0 0 3.00755e-08 0 0 0 3.45487e-08 0 
0 0 0 1.64164e-10 0 1.08888e-10 0 6.67755e-11 1.81094e-10 
2.13089e-11 2.53372e-11 8.02621e-11 0 0 0 0 6.07844e-11 0 
5.73043e-11 0 0 0 0 0 1.59095e-11 0 0 
0 0 0 0 0 0 0 0 0 
2.39447e-11 0 0 1.77254e-12 0 0 0 0 0 
0 0 0 1.75369e-11 0 0 0 5.88996e-11 0 
8.3069e-11 0 0 0 0 0 0 8.45327e-11 3.9864e-11 
0 0 0 0 0 0 1.58539e-10 0 0 
0 0 0 0 0 0 0 0 0 
0 0 0 0 0 7.57265e-11 6.5039e-11 0 0 
0 0 0 0 5.94073e-14 0 0 0 0 
0 3.95419e-11 0 6.42479e-11 0 0 0 0 0 
0 0 9.99254e-11 0 0 0 0 0 0 
0 0 5.41113e-11 6.79209e-11 2.28239e-11 1.03891e-10 0 5.68021e-11 1.45698e-10 
0 0 0 0 0 0 0 0 0 
0 0 0 0 0 0 0 0 0 
0 0 0 0 0 0 0 0 0 
0 0 0 0 0 0 0 0 0 
0 0 0 0 0 0 0 0 0 
0 0 0 0 0 0 0 0 0 
0 4.53198e-11 0 9.66082e-11 0 6.28616e-11 0 0 0 
0 0 0 1.16864e-10 4.1219e-11 4.50034e-11 1.81811e-11 9.67938e-11 0 
0 0 0 0 0 0 0 0 0 
0 0 0 0 0 8.8419e-12 0 0 0 
0 0 0 0 0 0 1.07847e-10 0 0 
0 0 8.49162e-11 0 0 0 1.35568e-11 0 0 
0 0 0 0 0 8.0599e-11 0 1.84625e-10 0 
0 0 2.57963e-10 0 0 0 0 0 0 
0 0 0 0 2.61402e-08 0 0 0 0 
0 0 0 0 0 0 0 0 0 
0 0 0 0 0 0 0 0 1.66679e-11 
0 0 0 0 1.83853e-11 0 0 0 6.13828e-11 
0 0 0 0 1.38569e-10 0 0 0 0 
5.42683e-11 0 0 0 0 0 1.08191e-10 0 8.42181e-11 
6.9112e-11 9.84624e-11 0 0 0 0 1.18845e-10 0 0 
1.08591e-10 2.48376e-08 0 0 0 0 4.48712e-11 0 0 
0 1.97486e-10 0 0 0 0 2.81928e-08 0 0 
7.49075e-11 0 0 0 0 0 0 0 0 
0 0 0 0 0 0 0 0 0 
0 4.8995e-11 0 0 0 1.06222e-10 6.30296e-11 0 0 
1.02553e-11 0 0 0 0 0 0 0 0 
0 0 0 0 0 0 0 0 8.07116e-11 
4.02899e-11 0 0 0 0 0 0 0 0 
0 0 0 0 0 0 0 0 0 
0 0 0 0 0 0 0 0 0 
0 0 0 0 0 0 0 0 0 
0 0 0 0 0 0 0 0 0 
0 0 0 0 0 0 2.94651e-11 0 0 
0 6.55639e-11 0 0 0 0 0 1.03041e-10 0 
4.05849e-10 0 0 0 3.30439e-11 7.5411e-11 0 0 0 
0 3.83133e-08 3.85228e-08 0 0 0 3.2287e-11 0 0 
0 0 6.91132e-11 1.52465e-11 0 0 0 0 0 
0 0 0 0 0 4.51267e-11 0 0 0 
0 0 2.43336e-11 0 0 0 0 0 0 
0 1.96325e-11 0 0 2.8755e-12 0 0 0 0 
0 0 0 0 3.31221e-08 0 0 2.20723e-10 0 
2.70529e-10 0 2.79889e-10 0 0 1.10753e-11 0 0 5.51369e-12 
0 0 0 0 0 5.14823e-11 0 0 0 
0 0 0 0 0 0 0 0 0 
0 8.03979e-11 0 0 0 0 0 0 0 
0 5.31899e-12 0 0 0 0 0 0 0 
0 0 0 1.15354e-10 0 0 0 1.691e-10 0 
0 1.14166e-11 0 0 0 0 0 0 0 
0 7.61578e-11 4.01509e-12 0 1.01811e-10 5.31445e-11 9.8789e-14 2.1798e-10 0 
0 0 0 0 1.02443e-10 0 0 0 2.81874e-11 
0 0 0 0 0 0 0 0 0 
0 0 0 0 1.06727e-11 2.70252e-11 0 0 2.12634e-11 
0 0 0 0 2.66201e-10 0 0 1.38634e-10 0 
4.31348e-11 1.28842e-10 0 0 0 1.12751e-10 2.32483e-10 0 0 
0 0 0 0 0 0 0 0 1.74248e-11 
0 0 0 0 1.11248e-11 5.69755e-12 0 0 0 
0 0 0 0 0 0 0 0 0 
0 0 0 0 0 0 0 0 0 
0 0 0 0 0 0 0 0 0 
0 0 0 0 0 0 0 0 0 
0 0 0 0 2.42722e-11 0 0 0 0 
0 0 6.64609e-11 0 0 0 0 0 0 
0 6.66748e-12 0 0 4.83778e-11 0 8.8022e-11 0 0 
0 0 2.38542e-10 2.41987e-10 0 8.97832e-11 1.08357e-10 0 0 
0 0 3.62553e-11 0 0 0 0 0 0 
6.44593e-12 0 0 9.12413e-11 0 1.15073e-10 0 0 0 
0 0 0 0 0 0 0 0 0 
0 0 0 0 0 0 1.06726e-11 0 1.67079e-11 
0 5.00147e-10 0 0 0 6.10904e-11 0 2.97634e-11 0 
5.86847e-11 0 0 0 0 0 8.28441e-11 0 0 
0 9.56767e-11 0 0 5.4842e-11 0 0 4.53444e-11 0 
0 0 0 0 0 2.81882e-11 0 0 0 
0 0 0 0 1.147e-11 0 0 0 0 
0 0 0 0 0 0 0 0 0 
0 3.37952e-11 5.33141e-11 0 0 0 0 0 0 
4.056e-11 0 0 9.01358e-11 0 0 0 0 0 
0 0 0 0 0 2.80203e-11 0 0 0 
6.06286e-11 0 0 2.23713e-10 0 0 0 3.84235e-11 0 
4.73315e-12 0 0 0 0 0 0 0 0 
0 0 0 0 0 0 0 0 0 
1.93495e-10 1.7583e-10 2.66718e-08 0 0 2.03255e-10 0 0 0 
0 0 5.31799e-11 0 0 2.53591e-11 0 0 0 
0 0 0 1.63293e-11 0 0 0 0 0 
0 0 0 0 0 0 0 0 0 
0 0 0 0 0 0 0 0 0 
0 0 0 0 0 0 0 0 0 
0 0 0 0 0 0 0 0 0 
0 0 0 0 0 0 0 0 0 
0 0 0 0 0 0 0 5.6043e-11 0 
0 3.327e-11 0 0 0 2.66708e-08 0 3.98378e-10 1.13658e-10 
0 0 0 0 2.89963e-10 3.01589e-10 0 0 0 
5.25054e-11 2.00744e-10 0 0 1.18196e-10 0 0 0 0 
0 0 0 0 0 0 0 0 0 
0 0 0 3.87441e-11 1.06512e-10 1.01877e-10 0 3.09561e-10 0 
0 2.08561e-11 0 0 0 0 6.10093e-11 0 0 
0 0 0 1.09318e-10 2.17641e-11 0 3.77135e-11 0 0 
0 0 4.6727e-11 0 1.05779e-10 5.98386e-12 1.46722e-11 0 0 
9.90605e-11 0 7.31559e-12 1.4498e-11 0 0 0 5.42549e-11 0 
0 0 0 0 0 0 0 0 0 
0 0 0 0 3.23565e-11 0 4.42359e-11 0 0 
0 0 0 0 0 0 0 0 0 
0 0 0 0 0 0 4.47807e-11 0 0 
0 0 1.31436e-10 0 0 0 0 5.12213e-12 0 
0 0 0 0 0 5.25792e-11 0 0 1.51699e-11 
0 0 0 0 0 0 0 0 1.96808e-10 
2.82431e-10 0 0 0 1.05675e-10 0 0 2.77923e-11 0 
1.70699e-11 0 0 0 0 0 0 0 0 
0 0 0 0 0 0 0 0 0 
1.15115e-10 9.01947e-11 7.57423e-11 0 0 0 0 0 0 
0 0 0 2.9336e-11 4.41294e-11 1.16598e-10 0 3.09405e-08 0 
0 0 0 0 0 0 0 0 0 
0 0 0 0 0 0 0 0 0 
0 0 0 0 0 0 0 0 0 
0 0 0 0 0 0 0 0 0 
0 0 0 0 0 0 0 0 0 
0 0 0 0 0 0 0 0 0 
0 0 0 0 0 0 0 2.52823e-10 4.40875e-11 
0 0 0 3.815e-14 2.93291e-10 1.59045e-10 0 8.97006e-12 1.0502e-10 
0 3.66043e-11 0 1.93738e-10 0 0 0 0 0 
3.17969e-11 0 0 0 0 0 0 0 0 
0 0 0 0 0 0 0 1.37595e-10 0 
0 1.27579e-10 0 0 0 0 5.84986e-11 0 3.03035e-11 
1.04956e-11 0 0 5.46894e-11 1.10853e-11 3.58621e-11 0 0 0 
0 9.49598e-12 0 0 0 5.1791e-11 2.21579e-10 3.34949e-11 0 
0 0 0 2.35172e-11 0 0 0 2.17016e-11 0 
0 0 0 0 0 0 0 0 0 
0 5.30133e-11 1.37214e-10 0 0 0 0 0 1.58681e-11 
1.8303e-11 0 6.22516e-11 0 0 0 0 0 0 
1.25962e-10 0 0 0 0 0 0 0 9.18392e-11 
0 0 0 0 0 0 0 0 0 
0 0 0 0 0 0 3.76276e-11 7.85372e-11 0 
1.52761e-11 1.09219e-10 0 0 0 0 0 0 0 
1.00739e-10 0 0 0 0 0 0 0 0 
0 2.63637e-08 0 0 0 0 0 4.9315e-11 0 
0 0 0 0 0 0 0 0 0 
2.68738e-11 0 0 0 1.22865e-10 0 0 0 3.30692e-10 
0 0 0 1.51443e-10 0 0 0 0 0 
0 0 8.04229e-11 0 0 0 0 0 0 
0 0 0 4.68244e-11 0 0 0 0 0 
0 0 0 0 0 0 0 0 0 
0 0 0 0 0 0 0 0 0 
0 0 0 0 0 0 0 0 0 
0 0 0 0 0 0 0 0 0 
0 0 0 0 0 1.28924e-11 0 0 0 
0 0 0 0 0 0 1.35906e-10 0 0 
2.90437e-13 7.9869e-11 7.6476e-11 0 0 0 0 0 0 
0 0 0 0 0 0 0 5.29429e-12 0 
0 0 0 7.00568e-11 0 0 1.12961e-11 2.27346e-11 0 
0 0 0 0 0 0 0 0 0 
0 0 2.72039e-10 2.70061e-08 0 0 0 0 0 
0 0 0 0 0 0 0 5.57073e-11 8.20901e-12 