# vtk DataFile Version 5.1
vtk output
ASCII
DATASET STRUCTURED_POINTS
DIMENSIONS 250 250 1
SPACING 1 1 1
ORIGIN 0 0 0
POINT_DATA 62500
FIELD FieldData 6
feature_1 1 62500 float
0 0 0 0 0 0 0 0 0 
0 0 0 0 0 0 0 0 0 
0 0 0 0 0 0 0 0 0 
0 0 0 0 0 0 0 0 0 
0 0 0 0 0 0 0 0 0 
0 0 0 0 0 0 0 0 0 
1.60333e-12 0 0 0 0 0 0 0 0 
0 0 0 0 0 0 0 0 0 
0 0 0 0 0 0 0 0 0 
0 0 0 0 0 0 0 0 0 
0 0 0 0 0 0 0 0 0 
0 0 0 0 0 0 0 0 0 
0 0 0 0 0 0 0 0 0 
0 0 0 0 0 0 0 0 0 
0 0 0 0 0 0 0 0 0 
0 0 0 0 0 0 0 0 0 
0 0 0 0 0 0 0 0 0 
0 0 0 0 0 0 0 0 0 
0 0 0 0 0 0 0 0 0 
0 0 0 0 0 0 0 0 0 
0 0 0 0 0 0 0 0 0 
0 0 0 0 0 0 0 0 0 
0 0 0 0 0 0 0 0 0 
0 0 0 1.30947e-12 0 0 0 0 0 
0 0 0 0 0 0 0 0 0 
0 0 0 0 0 0 0 0 0 
0 0 0 0 0 0 0 0 0 
0 0 0 0 0 0 0 0 0 
0 0 0 0 0 0 0 0 0 
0 0 0 0 0 0 0 0 0 
0 0 0 0 0 0 0 0 0 
0 0 0 0 0 0 0 1.05941e-12 0 
0 0 0 0 0 0 0 0 0 
0 0 0 0 0 0 0 0 0 
0 0 0 0 0 0 0 0 0 
0 0 0 0 0 0 0 0 0 
0 0 0 0 0 0 0 0 0 
0 0 0 0 0 0 0 0 0 
0 0 0 0 0 0 0 0 0 
0 0 0 0 0 0 0 0 3.44603e-13 
0 1.56194e-12 0 0 0 0 0 0 0 
0 0 0 0 0 0 0 0 0 
0 0 0 0 0 0 0 0 0 
0 0 0 0 0 0 0 0 0 
0 0 0 0 0 0 0 0 0 
0 1.5881e-12 0 0 0 0 0 0 0 
0 0 0 0 0 0 0 0 0 
0 6.99027e-13 0 0 0 0 0 0 0 
0 0 0 0 0 0 0 0 0 
0 0 0 0 0 0 0 0 0 
0 0 0 0 0 0 0 0 0 
0 0 0 0 0 0 0 0 0 
0 0 0 0 0 0 0 0 0 
0 0 0 0 0 0 0 0 0 
0 0 0 0 0 0 0 0 0 
0 0 0 0 0 0 0 0 0 
0 0 0 0 0 0 0 0 0 
0 0 0 0 0 0 0 0 0 
0 0 0 0 0 0 0 0 0 
0 0 0 0 0 0 0 0 0 
2.53511e-12 0 0 0 0 0 0 0 0 
0 0 0 0 0 0 0 0 0 
0 0 0 0 0 0 0 0 0 
0 0 0 0 0 0 0 0 0 
0 0 0 0 0 0 0 0 0 
0 0 0 0 0 0 0 0 0 
0 0 0 0 0 0 0 0 0 
0 0 0 0 0 0 0 0 0 
0 0 0 0 0 0 0 0 0 
0 0 0 0 0 0 0 0 0 
0 0 0 0 0 0 0 0 0 
0 0 0 0 0 0 0 0 0 
0 0 0 0 0 0 0 0 0 
0 0 0 0 0 0 0 0 0 
0 0 0 0 0 0 0 0 0 
0 0 0 0 0 0 0 0 0 
0 0 0 0 0 0 0 0 0 
0 0 0 0 0 0 0 0 0 
0 0 0 0 0 0 0 0 0 
0 0 0 0 0 0 0 0 0 
0 0 0 0 0 0 0 0 0 
0 0 0 0 0 0 0 0 0 
0 0 0 0 0 0 0 0 0 
0 0 0 0 0 0 0 0 0 
0 0 0 0 0 0 0 0 0 
0 0 0 0 0 0 0 0 0 
0 0 0 0 0 0 0 0 0 
0 0 0 0 0 0 0 0 0 
0 0 0 0 0 0 0 0 0 
0 0 0 0 0 0 0 0 0 
0 0 0 0 0 0 0 0 0 
0 0 0 0 0 0 0 0 0 
0 0 0 0 0 0 0 0 0 
0 0 0 0 0 0 0 0 9.52079e-13 
0 0 0 0 0 0 0 0 0 
0 0 0 0 0 0 0 0 0 
0 0 0 0 0 0 0 0 0 
0 0 0 0 0 0 0 0 0 
0 0 0 0 0 0 0 0 0 
0 0 0 0 0 0 0 0 0 
0 0 0 0 0 0 0 0 0 
0 0 0 0 0 0 0 0 0 
0 0 0 0 0 0 0 0 0 
0 0 0 0 0 0 0 0 0 
0 0 0 0 0 0 0 0 0 
0 0 0 0 0 0 0 0 0 
0 0 0 0 0 0 0 0 0 
0 0 0 0 0 0 0 0 0 
0 0 0 0 0 0 0 0 0 
0 0 0 0 0 0 0 0 0 
0 0 0 0 0 0 0 0 0 
0 0 0 0 0 0 0 0 0 
0 0 0 0 0 0 0 0 0 
0 0 0 0 0 0 0 0 0 
0 0 0 0 0 0 0 0 0 
0 0 0 0 0 0 0 0 0 
0 0 0 0 0 0 0 0 0 
0 0 0 0 0 1.36497e-12 0 0 0 
0 0 0 0 0 0 0 0 0 
0 5.03642e-12 0 0 0 0 0 0 0 
0 0 0 0 0 0 0 0 0 
0 0 0 0 0 0 0 0 0 
0 0 0 0 0 0 0 0 0 
0 0 0 0 0 0 0 0 0 
0 0 0 0 0 0 0 0 0 
0 0 0 0 0 0 0 0 0 
0 0 0 0 0 0 0 0 0 
0 0 0 0 0 0 0 0 3.11189e-13 
0 0 0 0 0 0 0 0 0 
0 0 0 0 0 0 0 0 0 
0 0 0 0 0 0 0 0 0 
0 0 0 0 0 0 0 0 0 
0 0 0 0 0 0 0 0 0 
0 0 0 0 0 0 0 0 0 
0 0 0 0 0 0 0 0 0 
0 0 0 0 0 0 0 0 0 
0 0 0 0 0 0 0 0 0 
0 0 0 0 0 0 0 0 0 
0 0 0 0 0 0 0 0 0 
0 0 0 0 0 0 0 0 0 
0 0 0 0 0 0 0 0 0 
0 0 0 0 0 0 0 0 0 
0 0 0 0 0 0 0 0 0 
0 0 0 0 0 0 0 0 0 
0 0 0 0 0 0 0 0 0 
0 0 0 0 0 0 0 0 0 
0 0 0 0 0 0 0 0 0 
0 0 0 0 0 0 0 0 0 
0 0 0 0 0 0 0 0 0 
0 0 0 0 0 0 0 0 0 
0 0 0 0 0 0 0 0 0 
0 0 0 0 0 0 0 0 0 
0 0 0 0 0 0 0 0 0 
0 0 0 0 0 0 0 0 0 
0 0 0 0 0 0 0 0 0 
0 0 0 0 0 0 0 0 0 
0 0 0 0 0 0 0 0 0 
0 0 0 0 0 0 0 0 0 
0 0 0 0 0 0 0 0 0 
0 0 0 0 0 0 0 0 0 
0 0 0 0 0 0 0 0 0 
0 0 0 0 0 0 0 0 0 
0 0 0 0 0 0 0 0 0 
0 0 0 0 0 0 0 0 0 
0 0 0 0 0 0 0 0 0 
0 0 0 0 0 0 0 0 0 
0 0 0 0 0 0 0 0 0 
0 0 0 0 0 0 0 0 0 
0 0 0 0 0 0 0 0 0 
0 0 0 0 0 0 0 0 0 
0 0 0 0 0 0 0 0 0 
0 0 0 0 0 0 0 0 0 
0 0 0 0 0 0 0 0 0 
0 0 0 0 0 0 0 0 0 
0 0 0 0 0 0 0 0 0 
0 0 0 0 0 0 0 0 0 
0 0 0 0 0 0 0 0 0 
0 0 0 0 0 0 0 0 0 
0 0 0 0 0 0 0 0 0 
0 0 0 0 0 0 0 0 0 
0 0 0 0 0 0 0 0 0 
0 0 0 0 0 0 0 0 0 
0 0 0 0 0 0 0 0 0 
0 0 0 0 0 0 0 0 0 
0 0 0 0 0 0 0 0 0 
0 0 0 0 0 0 0 0 0 
0 0 0 0 0 0 0 0 0 
0 0 0 0 0 0 0 0 0 
0 0 0 0 0 0 0 0 0 
0 0 0 0 0 0 0 0 0 
0 0 0 0 0 0 0 0 0 
0 0 0 0 0 0 0 0 0 
0 0 0 0 0 0 0 0 0 
0 0 0 0 0 0 4.35501e-13 0 0 
0 0 0 0 0 0 0 0 0 
0 0 0 0 0 0 0 0 0 
0 0 0 0 0 0 0 0 0 
0 0 0 0 0 0 0 0 0 
0 0 0 0 0 0 0 0 0 
0 0 0 0 0 0 0 0 0 
0 0 0 0 0 0 0 0 0 
0 0 0 0 0 0 0 0 0 
0 0 0 0 0 0 0 0 0 
0 0 0 0 0 0 0 0 0 
0 0 0 0 0 0 0 0 0 
0 0 0 0 0 0 0 0 0 
0 0 0 0 0 0 0 0 0 
0 0 0 0 0 0 0 0 0 
0 0 0 0 0 0 0 0 0 
0 0 0 0 0 0 0 0 0 
0 0 0 0 0 0 0 0 0 
0 0 0 0 0 0 0 0 0 
0 0 0 0 0 0 0 0 0 
0 0 0 0 0 0 0 0 0 
0 0 0 0 0 0 0 0 0 
0 0 0 0 0 0 0 0 0 
0 0 0 0 0 0 0 0 0 
0 0 0 0 0 0 0 0 0 
0 0 0 0 0 0 0 0 0 
0 0 0 0 0 0 0 0 0 
0 0 0 0 0 0 0 0 0 
0 0 0 0 0 0 0 0 0 
0 0 0 0 0 0 0 0 0 
0 0 0 0 0 0 0 0 0 
0 0 0 0 0 0 0 0 0 
0 0 0 4.21208e-14 0 0 0 0 0 
0 0 0 0 0 0 0 0 0 
0 0 0 0 0 0 0 0 0 
0 0 0 0 0 0 0 0 0 
0 0 0 0 0 0 0 0 0 
0 0 0 0 0 0 0 0 0 
0 0 0 0 0 0 0 0 0 
0 0 0 0 0 0 0 0 0 
0 0 0 0 0 0 0 0 0 
0 0 0 0 0 0 0 0 0 
0 0 0 0 0 0 0 0 0 
0 0 0 0 0 0 0 0 0 
0 0 0 0 0 0 0 0 0 
0 0 0 0 0 0 0 0 0 
0 0 0 0 0 0 0 0 0 
0 0 0 0 0 0 0 0 0 
0 0 0 0 0 0 0 0 0 
0 0 0 0 0 0 0 0 0 
0 0 0 0 0 0 0 0 0 
0 0 0 0 0 0 0 0 0 
0 0 0 0 0 0 0 0 0 
0 0 0 0 0 0 0 0 0 
0 0 0 1.79936e-12 0 0 0 0 0 
0 0 0 0 0 0 0 0 0 
0 0 0 0 0 0 0 0 0 
0 0 0 0 0 0 0 0 0 
0 0 0 0 0 0 0 0 0 
0 0 0 0 0 0 0 0 0 
0 0 0 0 0 0 0 0 0 
0 0 0 0 0 0 0 0 0 
0 0 0 0 0 0 0 0 0 
0 0 0 0 0 0 0 0 0 
0 0 0 0 0 0 0 0 0 
0 0 0 0 0 0 0 0 0 
0 0 0 0 0 0 0 0 0 
0 0 0 0 0 0 0 0 0 
0 0 0 0 0 0 0 0 0 
0 0 0 0 0 0 0 0 0 
0 0 0 0 0 0 0 0 0 
0 0 0 0 0 0 0 0 0 
0 0 0 0 0 0 0 0 0 
0 0 0 0 0 0 0 0 0 
0 0 0 0 0 0 0 0 0 
0 0 0 0 0 0 0 0 0 
0 0 0 0 0 0 0 0 0 
0 0 0 0 0 0 0 0 0 
0 0 0 0 0 0 0 0 0 
0 0 0 0 0 0 0 0 0 
0 0 0 0 0 0 0 0 0 
0 0 0 1.5089e-12 0 0 0 0 0 
0 0 0 0 0 0 0 0 0 
0 0 0 0 0 0 0 0 0 
0 0 0 0 0 0 0 0 0 
0 0 0 0 0 0 0 0 0 
0 0 0 0 0 0 0 0 0 
0 0 0 0 0 0 0 0 0 
0 0 0 0 0 0 0 0 0 
0 0 0 0 0 0 0 0 0 
0 0 0 0 0 0 0 0 0 
0 0 0 0 0 0 0 0 0 
0 0 0 0 0 0 0 0 0 
0 0 0 0 0 0 0 0 0 
0 0 1.33833e-12 0 0 0 0 0 0 
0 0 0 0 0 0 0 0 0 
0 0 0 0 0 0 0 0 0 
0 0 0 0 0 0 0 0 0 
0 0 0 0 0 0 0 0 0 
0 0 0 0 0 0 0 0 0 
0 0 0 0 0 0 0 0 0 
0 0 0 0 0 0 0 0 0 
0 0 0 0 0 0 0 0 0 
0 0 0 0 0 0 0 0 0 
0 0 0 0 0 0 0 0 0 
0 0 0 0 0 0 0 0 0 
0 0 0 0 0 0 0 0 0 
0 0 0 0 0 0 0 0 0 
0 0 0 0 0 0 0 0 0 
0 0 0 0 0 0 0 0 0 
0 0 0 0 0 0 0 0 0 
0 0 0 0 0 0 0 0 0 
0 0 0 0 0 0 0 0 0 
0 0 0 0 0 0 0 0 0 
0 0 0 0 0 0 0 0 0 
0 0 0 0 0 0 0 0 0 
0 0 0 0 0 0 0 0 0 
0 0 0 0 0 0 0 0 0 
0 0 0 0 0 0 0 0 0 
0 0 0 0 0 0 0 0 0 
0 0 0 0 0 0 0 0 0 
0 0 0 0 0 0 0 0 0 
0 0 0 0 0 0 0 0 0 
0 0 0 0 0 0 0 0 0 
0 0 0 0 0 0 0 0 0 
0 0 0 0 0 0 0 0 0 
0 0 0 0 0 0 0 0 0 
0 0 0 0 0 0 0 0 0 
0 0 0 0 0 0 0 0 0 
0 0 0 0 0 0 0 0 0 
0 0 0 0 0 0 0 0 0 
0 0 0 0 0 0 0 0 0 
0 0 0 0 0 0 0 0 0 
0 0 0 0 0 0 0 0 0 
0 0 0 0 0 0 0 0 0 
8.64867e-13 0 0 0 0 0 0 0 0 
0 0 0 0 0 0 0 0 0 
0 0 0 0 0 0 0 0 0 
0 0 0 0 0 0 0 0 0 
0 0 0 0 0 0 0 0 0 
0 0 0 0 0 0 0 0 0 
0 0 0 0 0 0 0 0 0 
0 0 0 0 0 0 0 0 0 
0 0 0 0 0 3.26903e-13 0 0 0 
0 0 0 0 0 0 0 0 0 
0 0 0 0 0 0 0 0 0 
0 0 0 0 0 0 0 0 0 
0 0 0 0 0 0 0 0 0 
0 0 0 0 0 0 0 0 0 
0 0 0 0 0 0 0 0 0 
0 0 0 0 0 0 0 0 0 
0 0 0 0 0 0 0 0 0 
0 0 0 0 0 0 0 0 0 
0 0 7.3077e-13 0 0 0 0 0 0 
0 0 0 0 0 0 0 0 0 
0 0 0 0 0 0 0 0 0 
0 0 0 0 0 0 0 0 0 
0 0 0 0 0 0 0 0 0 
0 0 0 0 1.04879e-12 0 0 0 0 
0 0 0 0 0 0 0 0 0 
0 0 0 0 0 0 0 0 0 
0 0 0 0 0 0 0 0 0 
0 0 0 0 0 0 0 0 0 
0 0 0 0 0 0 0 0 0 
0 0 0 0 0 0 0 0 0 
0 0 0 0 0 0 0 0 0 
0 0 0 0 0 0 0 0 0 
0 0 0 0 0 0 0 0 0 
0 0 0 0 0 0 0 0 0 
0 0 0 0 0 0 0 0 0 
0 0 0 0 0 0 0 0 0 
0 0 0 0 0 0 0 0 0 
0 0 0 0 0 0 0 0 0 
0 0 0 0 0 0 0 0 0 
0 0 0 0 0 0 0 0 0 
0 0 0 0 0 0 0 0 0 
0 0 0 0 0 0 0 0 0 
0 0 0 0 0 0 0 0 0 
0 0 0 2.94968e-13 0 0 0 0 0 
0 0 0 0 0 0 0 0 0 
0 0 0 0 0 0 0 0 0 
0 0 0 0 0 0 0 0 0 
0 0 0 0 0 0 0 5.58879e-13 0 
0 0 0 0 0 0 0 0 0 
0 0 0 0 0 0 0 0 0 
0 0 0 0 0 0 0 0 0 
0 0 0 0 0 0 0 0 0 
0 0 0 0 0 0 0 0 0 
0 0 0 0 0 0 0 0 0 
0 0 0 0 0 0 0 0 0 
0 0 0 0 0 0 0 0 0 
0 0 0 0 0 0 0 0 0 
0 0 0 0 0 0 0 0 0 
0 0 0 0 0 0 0 0 0 
1.57718e-13 0 0 0 0 0 0 0 0 
0 0 0 0 0 0 0 0 0 
0 0 0 0 0 0 0 0 0 
0 0 0 0 0 0 0 0 0 
0 0 0 0 0 0 0 0 0 
0 0 0 0 0 0 0 0 0 
0 0 0 0 0 0 0 0 0 
0 0 0 0 0 0 0 0 0 
0 0 0 0 0 0 0 0 0 
0 0 0 0 0 0 0 0 0 
0 0 0 0 0 0 0 0 0 
0 0 0 0 0 0 0 0 0 
0 0 0 0 0 0 0 0 0 
0 0 0 0 0 0 0 0 0 
0 0 0 0 0 0 0 0 0 
0 0 0 0 0 0 0 0 0 
0 0 0 0 0 0 0 0 0 
0 0 0 0 0 0 0 0 0 
0 0 0 0 0 0 0 0 0 
0 0 0 0 0 0 0 0 0 
0 0 0 0 0 0 0 0 0 
0 0 0 0 0 0 0 0 0 
0 0 0 0 0 0 0 0 0 
0 0 0 0 0 0 0 0 0 
0 0 0 0 0 0 0 0 0 
0 0 0 0 0 0 0 0 0 
0 0 0 0 0 0 0 0 0 
0 0 0 0 0 0 0 0 0 
0 0 0 0 0 0 0 0 0 
0 0 0 0 0 0 0 0 0 
0 0 0 0 0 0 0 0 0 
0 0 0 0 0 0 0 0 0 
0 0 0 0 0 0 0 0 0 
0 0 0 0 0 0 0 0 0 
0 0 0 0 0 0 0 0 0 
0 0 0 0 0 0 0 0 0 
0 0 0 0 0 0 0 0 0 
0 5.92145e-12 0 0 1.80245e-12 0 0 0 0 
0 0 0 0 0 0 0 0 0 
0 0 0 0 0 0 0 0 0 
0 0 0 0 0 0 0 0 0 
0 0 0 0 0 0 0 0 0 
0 0 0 0 0 0 0 0 0 
0 0 0 0 0 0 0 0 0 
0 0 0 0 0 0 0 0 0 
0 0 0 0 0 0 0 0 0 
0 0 0 0 0 0 0 0 0 
0 0 0 0 0 0 0 0 0 
0 0 0 0 0 0 0 0 0 
0 0 0 0 0 0 0 0 0 
0 0 0 0 0 0 0 0 0 
0 0 0 0 0 0 0 0 0 
0 0 0 0 0 0 0 0 0 
0 0 0 0 0 0 0 0 0 
0 0 0 0 0 0 0 0 0 
0 0 0 0 0 0 0 0 0 
0 0 0 0 0 0 0 0 0 
0 0 0 0 0 0 0 0 0 
0 0 0 0 0 0 0 0 0 
0 0 0 0 0 0 0 0 0 
0 0 0 2.73779e-12 0 0 0 0 0 
0 0 0 0 0 0 0 0 0 
0 0 0 0 0 0 0 0 0 
0 0 0 0 0 0 0 0 0 
0 0 0 0 0 0 0 0 0 
2.75698e-13 0 0 0 0 0 0 0 0 
0 0 0 0 0 0 0 0 0 
0 0 0 0 0 0 0 0 0 
0 0 1.12947e-12 0 0 0 0 0 0 
0 0 0 0 0 0 0 0 0 
0 0 0 0 0 0 0 0 0 
0 0 0 0 0 0 0 0 0 
0 0 0 0 0 0 0 0 0 
0 0 0 0 1.10983e-11 0 0 0 0 
0 0 0 0 0 0 0 0 0 
0 0 0 0 0 0 0 0 0 
0 0 0 0 0 0 0 0 0 
0 0 0 0 0 0 0 0 0 
0 0 0 0 0 0 0 0 0 
0 0 0 0 0 0 0 0 0 
0 0 0 0 0 0 0 0 0 
0 0 0 0 0 0 0 0 0 
0 0 0 0 0 0 0 0 0 
0 0 0 0 0 0 0 0 0 
0 0 0 0 0 0 0 0 0 
0 0 0 0 0 0 0 0 0 
0 0 0 0 0 0 0 0 0 
0 0 0 0 0 0 0 0 0 
0 0 0 0 0 0 0 0 0 
0 0 0 0 0 0 0 0 0 
0 0 0 0 0 0 0 0 0 
0 0 0 0 0 0 1.23504e-14 0 0 
0 0 0 0 0 0 0 0 0 
0 4.95051e-12 0 0 0 0 0 0 0 
0 0 0 0 0 0 0 0 0 
0 0 0 0 0 0 0 0 0 
0 0 0 0 0 0 0 0 0 
0 0 0 0 0 0 0 0 0 
0 0 0 0 0 0 0 0 0 
0 0 0 0 0 0 0 0 0 
0 0 0 0 0 0 0 0 1.13511e-12 
0 0 0 0 0 0 0 0 0 
0 0 0 6.66696e-12 0 0 0 0 0 
0 0 0 0 0 0 0 0 0 
0 0 0 0 0 0 0 0 0 
0 0 0 0 0 0 0 0 0 
0 0 0 0 0 0 0 0 0 
0 0 0 0 0 0 0 0 0 
0 0 0 0 0 0 0 0 0 
0 0 0 0 0 0 0 0 0 
0 0 0 0 0 0 0 0 0 
0 0 0 0 0 0 0 0 0 
0 0 0 0 0 0 0 0 0 
0 0 0 0 0 0 0 0 0 
0 0 0 0 0 0 0 0 0 
0 0 0 0 0 0 0 0 0 
0 0 0 0 0 0 0 0 1.40807e-12 
0 0 0 0 0 0 0 0 0 
0 0 0 0 0 0 0 0 0 
0 0 0 0 4.6095e-12 0 0 0 0 
0 0 0 0 0 0 0 0 8.82745e-12 
0 0 0 0 0 0 0 0 0 
0 0 0 0 0 0 0 0 0 
0 0 0 4.12711e-12 0 0 0 0 0 
0 0 0 0 0 0 0 0 0 
0 0 0 7.133e-12 0 0 0 0 0 
0 0 0 0 0 0 0 0 0 
0 0 0 1.95671e-12 0 0 0 0 0 
0 0 1.63128e-12 0 0 0 0 0 0 
0 0 0 0 0 0 0 0 0 
0 0 0 0 0 0 0 0 0 
0 0 0 0 0 0 0 0 0 
0 0 0 0 0 0 0 0 0 
0 0 0 0 0 0 0 0 0 
0 0 0 0 0 0 0 0 0 
0 0 0 0 0 0 0 0 0 
0 0 0 0 0 0 0 0 0 
0 0 0 0 0 0 0 0 0 
0 0 0 0 0 0 0 0 0 
1.08181e-13 0 0 0 0 0 0 0 0 
0 0 0 0 0 0 0 0 0 
0 0 0 0 0 0 0 0 0 
0 0 0 0 0 0 0 0 0 
0 0 0 0 0 0 0 0 0 
0 0 0 0 0 0 0 0 0 
0 0 0 0 0 0 0 0 0 
0 1.70023e-12 0 0 0 0 0 0 0 
0 0 0 0 0 4.20611e-12 0 0 0 
0 0 0 0 0 0 0 0 0 
0 0 0 0 0 0 0 0 0 
0 0 0 0 0 0 0 0 4.78497e-12 
0 0 0 2.10111e-12 4.13431e-12 0 0 0 0 
0 0 0 0 0 0 0 0 0 
0 0 0 0 0 0 0 2.80364e-12 0 
0 0 0 0 0 0 0 0 0 
0 0 0 0 0 0 0 0 0 
0 0 0 0 0 0 0 0 0 
0 0 0 0 0 8.2118e-13 0 0 0 
0 0 0 0 0 0 0 0 0 
0 0 0 0 0 0 0 0 0 
0 0 0 0 0 0 0 0 0 
0 0 0 0 0 0 0 0 0 
1.16927e-13 0 0 0 0 0 0 7.73159e-13 0 
0 0 0 0 0 0 0 0 0 
0 0 0 0 0 0 0 0 0 
0 0 0 0 0 0 0 0 0 
0 0 0 0 0 0 0 0 0 
0 0 0 0 0 0 0 0 0 
0 0 0 0 0 0 0 0 0 
0 0 0 0 0 0 0 0 0 
0 0 0 0 0 0 0 0 0 
0 0 0 0 0 0 0 0 0 
0 0 0 0 0 0 0 0 0 
0 0 0 0 0 0 0 0 0 
0 0 0 0 0 0 0 0 0 
0 0 0 0 0 0 0 0 0 
1.64313e-11 0 0 0 2.24883e-11 1.14591e-11 0 0 0 
0 0 0 0 0 0 0 0 0 
0 2.52314e-11 0 0 0 0 0 0 2.05942e-11 
0 0 0 0 0 0 0 0 0 
0 0 0 0 0 0 0 0 0 
0 0 0 0 0 0 0 0 0 
0 0 0 0 0 0 0 0 0 
0 0 0 0 0 0 0 0 0 
0 0 0 0 0 0 0 0 0 
0 0 0 0 0 0 0 0 0 
0 0 0 0 0 0 0 0 0 
0 0 0 0 0 0 0 0 0 
0 0 0 0 0 0 0 0 0 
0 0 0 0 0 0 0 0 0 
0 0 0 0 0 0 0 0 0 
0 5.33792e-12 0 0 0 0 0 0 0 
0 0 0 0 0 0 0 0 0 
0 0 0 0 0 0 0 0 0 
0 0 0 0 0 0 0 0 0 
0 0 0 0 0 0 0 0 0 
0 5.16509e-13 0 0 0 0 0 0 0 
0 0 0 0 0 0 0 0 0 
0 0 0 0 0 0 0 0 0 
0 0 0 0 0 0 0 0 0 
0 0 0 0 0 0 0 0 0 
0 0 0 0 0 0 0 0 0 
0 0 1.29618e-11 0 0 0 0 0 0 
0 0 0 0 0 1.66003e-11 1.48258e-11 0 0 
0 0 0 0 0 0 0 0 0 
0 0 0 0 0 0 0 0 0 
0 0 0 0 0 0 0 0 0 
8.1252e-12 0 0 0 0 2.32232e-11 0 0 0 
0 0 0 0 0 1.08567e-11 0 0 0 
0 0 0 0 0 0 0 0 0 
0 0 0 0 0 0 0 0 0 
0 0 0 0 0 0 0 0 0 
0 0 0 0 0 1.52965e-11 0 1.56076e-11 0 
0 0 0 0 0 0 0 0 0 
0 0 0 0 0 0 0 0 0 
0 0 0 0 0 0 0 0 0 
0 0 0 0 0 0 0 0 0 
0 0 0 0 0 0 0 0 0 
0 0 0 0 0 0 0 0 0 
0 0 0 0 0 0 0 6.69154e-12 0 
0 0 0 0 0 0 0 0 0 
0 0 0 0 0 0 0 0 0 
0 0 0 0 0 0 0 0 0 
0 0 0 0 0 0 0 0 0 
0 0 0 0 0 0 0 0 0 
0 0 0 0 0 0 0 0 0 
0 0 0 0 0 0 0 0 0 
0 0 0 0 0 0 0 0 0 
0 0 0 0 0 0 0 0 0 
0 0 0 0 0 0 0 0 1.48868e-13 
0 0 0 0 0 0 0 0 0 
0 0 0 0 0 1.62848e-11 0 2.56981e-11 0 
0 0 0 0 0 0 0 0 0 
0 0 0 0 2.58442e-11 0 3.51784e-11 0 0 
5.09804e-12 0 0 0 0 0 0 0 0 
2.85268e-11 0 0 4.36278e-12 0 0 0 0 0 
0 1.84968e-11 2.02315e-11 0 0 0 0 0 0 
0 0 0 0 0 0 0 0 0 
0 0 0 0 1.62469e-12 0 0 0 0 
0 0 0 0 0 0 5.60424e-12 0 0 
0 0 0 4.45667e-12 0 0 0 0 0 
0 0 0 0 0 0 0 0 0 
0 0 0 0 0 0 0 0 0 
0 0 0 0 0 0 0 0 0 
0 0 0 0 0 0 0 0 0 
0 0 0 0 0 0 0 0 0 
0 0 0 0 0 0 0 0 0 
0 0 4.03479e-12 0 0 0 0 0 0 
0 0 0 0 0 0 0 0 0 
0 0 0 0 0 0 0 0 0 
0 0 0 0 0 0 0 0 0 
0 0 0 0 0 0 0 0 0 
0 0 0 0 0 0 0 0 0 
0 0 0 0 0 0 0 0 0 
0 0 0 0 0 0 0 0 0 
0 0 0 0 0 0 0 0 0 
0 0 0 0 0 0 0 0 0 
0 0 1.43227e-11 2.13864e-11 0 0 0 7.21882e-12 0 
0 0 0 0 0 0 0 0 0 
0 2.56072e-11 0 3.93132e-12 0 0 0 0 0 
0 0 1.11726e-11 0 0 0 0 0 0 
0 0 0 0 0 0 0 0 0 
0 0 0 0 0 0 0 1.12159e-11 0 
0 0 0 0 0 0 0 0 0 
0 3.01077e-11 0 0 0 0 0 0 0 
1.05907e-11 0 0 0 0 0 0 0 0 
0 0 0 0 0 0 0 0 0 
1.20418e-11 0 0 0 0 0 0 7.80903e-12 0 
0 0 0 0 0 0 1.5645e-11 0 0 
0 0 0 0 0 0 0 0 0 
0 0 0 0 0 0 0 0 0 
0 5.21421e-13 0 0 0 0 0 0 0 
0 0 0 0 0 0 0 0 0 
0 0 0 0 0 0 0 0 0 
0 0 0 0 0 0 0 0 1.1533e-11 
0 0 0 1.46325e-11 0 0 0 0 0 
0 0 0 0 1.43809e-12 0 0 0 0 
0 0 0 0 0 0 0 0 0 
0 0 0 0 0 0 0 0 0 
0 0 0 0 0 0 0 0 0 
0 0 0 0 0 0 0 0 0 
0 0 0 0 0 0 0 0 0 
0 0 0 0 0 0 0 0 0 
0 0 0 0 0 0 0 0 0 
0 0 0 0 0 0 0 0 0 
0 0 0 0 0 0 0 0 0 
0 0 1.35455e-11 1.88027e-11 0 1.77085e-11 0 0 0 
4.1183e-11 0 4.05402e-11 0 0 0 0 0 0 
2.62473e-11 0 0 0 0 0 0 0 0 
0 2.25477e-11 0 0 0 0 0 5.07114e-11 0 
0 0 0 0 0 0 0 3.30948e-13 0 
0 0 0 0 0 0 0 0 0 
3.94057e-11 0 0 3.33082e-12 0 1.19868e-11 0 0 0 
0 0 0 0 0 0 5.91917e-12 0 0 
0 0 0 0 0 0 0 0 0 
3.09376e-11 0 0 0 0 0 0 0 0 
0 0 0 0 0 0 0 0 0 
0 0 0 3.86934e-12 0 0 1.38721e-11 0 0 
0 0 0 0 0 0 0 0 0 
0 0 0 0 0 0 0 0 0 
0 0 0 0 0 0 0 0 0 
0 0 0 0 0 0 0 0 0 
0 0 0 0 0 0 0 0 0 
0 0 0 0 0 0 0 0 0 
7.53705e-12 0 0 0 0 0 0 0 0 
0 0 0 0 0 0 0 0 0 
0 0 0 0 0 0 0 0 0 
0 0 0 0 0 0 0 0 0 
0 0 0 0 0 0 0 0 0 
0 0 0 0 0 0 0 0 0 
0 0 0 0 0 0 0 0 0 
0 0 0 0 0 0 9.99781e-12 0 0 
2.7322e-11 0 4.11758e-11 0 0 0 0 0 0 
0 0 0 0 0 0 0 0 0 
0 0 0 0 2.19119e-11 0 2.45548e-11 0 0 
1.83273e-11 3.00162e-11 0 0 0 4.37185e-11 0 0 0 
0 0 0 0 0 0 0 0 0 
0 0 0 2.34732e-11 7.26716e-11 0 0 2.62998e-11 0 
5.17272e-11 0 0 0 0 0 0 0 0 
0 3.84332e-11 0 4.66356e-11 0 0 0 0 0 
0 0 0 0 1.20846e-11 0 0 0 1.78502e-11 
0 0 0 0 0 0 0 0 0 
0 0 0 0 0 0 0 0 0 
0 0 0 5.78396e-11 2.24369e-11 0 0 0 0 
0 0 0 0 4.53231e-12 0 0 0 0 
0 1.29778e-11 0 0 0 0 0 0 0 
0 0 1.26211e-11 0 0 0 0 0 0 
0 0 0 0 0 0 0 0 0 
0 0 0 0 0 0 0 0 0 
0 0 0 0 0 0 0 0 0 
0 0 0 0 0 0 0 0 2.33849e-11 
0 0 0 0 0 0 0 0 0 
0 0 0 0 0 0 0 0 0 
0 0 0 0 0 0 0 0 0 
0 0 0 0 0 0 0 0 0 
0 0 0 0 0 0 0 0 0 
0 0 0 0 0 0 0 0 0 
0 0 0 0 0 0 0 0 0 
0 0 0 0 0 0 0 0 0 
0 0 0 0 0 0 0 0 0 
3.11797e-11 0 0 0 5.86388e-11 0 0 0 0 
0 0 0 0 0 0 0 0 0 
0 0 9.8632e-12 1.72509e-11 0 0 0 0 0 
0 0 0 0 2.25839e-11 0 0 0 0 
0 0 0 0 0 7.76745e-11 0 0 4.66299e-12 
2.15407e-11 0 6.29161e-11 1.00564e-10 0 0 0 0 0 
0 0 0 0 0 0 0 0 0 
4.68978e-11 5.17646e-11 0 0 6.11765e-11 0 0 0 0 
4.19342e-11 0 0 0 0 0 0 0 0 
0 0 0 0 2.7872e-11 0 0 0 0 
0 5.30908e-12 0 0 0 0 0 0 0 
0 0 0 3.8622e-12 4.69709e-11 0 0 8.43808e-12 0 
1.39649e-11 0 0 1.98591e-11 0 0 0 0 0 
0 0 0 0 0 0 0 0 0 
0 1.01537e-11 7.28012e-12 0 0 0 0 0 0 
0 2.42614e-11 0 2.52522e-12 0 0 0 0 2.12113e-12 
0 0 0 0 0 0 0 0 0 
0 0 0 0 0 0 0 6.81467e-12 0 
0 1.47592e-11 0 0 0 0 0 0 0 
0 0 0 0 6.32826e-12 0 0 0 0 
0 0 0 0 0 0 0 0 0 
0 0 0 0 0 0 0 0 0 
0 0 0 0 0 0 0 0 0 
0 0 0 0 0 0 0 0 0 
0 0 0 0 0 0 0 0 0 
0 0 0 0 0 0 0 0 0 
0 0 0 0 0 1.58323e-11 0 0 0 
0 4.2636e-12 0 0 6.58931e-12 0 0 0 0 
0 0 4.2222e-11 0 0 0 0 4.95099e-11 0 
0 0 0 0 0 1.88356e-11 0 0 0 
0 0 0 0 8.3771e-11 0 2.03133e-10 0 0 
0 0 5.02841e-11 4.0328e-11 1.8143e-11 0 0 3.01469e-11 0 
0 0 0 0 0 4.10114e-12 0 0 7.99532e-11 
0 0 0 0 0 0 7.75042e-11 0 0 
0 0 0 0 7.27787e-11 0 0 5.68379e-11 0 
0 0 0 0 0 2.1534e-11 0 0 0 
3.10385e-11 0 0 0 0 0 2.22147e-11 0 0 
0 0 0 0 0 0 0 0 5.43916e-11 
0 0 0 0 8.70521e-11 0 1.3209e-10 0 0 
0 3.71772e-11 0 0 0 0 3.21881e-11 0 0 
6.29037e-11 0 4.7325e-11 0 0 2.69142e-11 0 0 0 
0 0 0 0 1.8181e-11 0 0 3.63067e-11 0 
0 0 2.17476e-11 3.28921e-11 0 0 0 0 0 
0 0 0 0 0 0 0 0 0 
0 0 0 0 0 0 0 0 0 
0 0 0 0 0 0 0 0 0 
0 0 2.34216e-11 2.95087e-12 0 0 0 3.30368e-11 0 
0 0 0 0 0 0 0 0 0 
0 0 0 0 0 0 0 0 0 
0 0 0 0 0 0 0 0 0 
0 0 0 0 0 0 0 0 0 
0 0 0 0 0 0 0 0 0 
0 0 0 0 0 0 0 0 0 
0 0 0 0 0 0 0 3.83811e-11 0 
0 0 0 0 1.32388e-11 1.32397e-12 0 0 0 
0 0 0 0 0 4.90332e-11 0 0 0 
0 2.37509e-10 0 0 6.30797e-11 0 0 0 0 
2.6378e-12 0 0 1.59785e-11 0 0 0 0 0 
0 0 0 2.03225e-10 2.43307e-08 0 0 0 4.40939e-11 
0 2.75946e-11 0 0 0 0 0 0 0 
0 0 0 0 2.42719e-10 0 1.67049e-12 0 4.06276e-11 
0 1.63581e-11 0 2.49228e-11 0 0 0 0 6.59665e-11 
0 1.51821e-12 2.32347e-12 0 0 0 0 0 0 
0 0 0 0 0 0 0 0 3.85351e-11 
0 0 1.68134e-11 0 1.61781e-11 0 0 0 0 
0 0 5.1383e-11 0 0 0 0 0 0 
0 0 5.91433e-11 6.83068e-11 0 0 0 0 0 
1.26049e-10 1.27868e-11 0 0 0 9.13021e-11 5.42273e-11 0 0 
0 0 0 0 0 0 0 0 0 
0 1.6533e-11 0 0 0 0 0 0 0 
1.24329e-11 0 0 0 5.7322e-13 2.60813e-11 0 0 0 
0 0 0 0 0 0 0 0 0 
0 0 0 0 0 0 0 8.5515e-12 0 
0 0 1.86243e-11 0 0 2.96458e-11 0 0 0 
0 0 0 6.73918e-11 0 3.30534e-11 0 0 0 
0 0 0 0 0 0 3.30113e-12 0 0 
0 0 0 0 0 0 0 0 0 
0 0 0 0 0 0 0 0 0 
0 0 0 0 0 0 0 0 0 
0 0 0 0 0 0 0 0 0 
0 0 0 0 0 0 0 0 0 
0 0 0 0 1.67514e-11 1.19e-11 0 0 6.54056e-11 
0 0 0 4.45985e-11 5.49545e-12 3.11182e-11 0 0 0 
0 0 0 0 0 0 0 0 0 
0 3.69496e-11 0 0 0 2.53288e-11 7.21623e-11 0 7.81339e-12 
0 8.56658e-12 0 0 4.86417e-12 1.94341e-11 4.63081e-11 0 0 
0 0 0 1.78544e-10 0 0 4.81411e-11 0 2.54248e-11 
0 0 0 0 0 0 0 1.94525e-11 5.22462e-11 
3.20971e-11 1.30363e-10 2.54804e-08 0 0 0 0 0 0 
2.5896e-11 0 0 0 2.64871e-08 0 0 1.27748e-10 0 
0 8.25539e-12 5.75244e-11 0 2.51937e-11 9.84902e-11 1.4024e-10 0 0 
0 0 0 5.14569e-11 3.51301e-11 9.68339e-12 0 0 0 
0 0 0 2.17305e-11 0 0 0 0 0 
8.79261e-12 0 1.11237e-10 5.90807e-11 0 0 0 0 0 
0 0 0 2.5219e-08 0 0 0 2.53019e-11 0 
8.96267e-11 0 0 1.78526e-10 5.32356e-11 0 0 6.09389e-11 8.05518e-11 
0 0 3.29409e-11 0 0 3.77018e-11 0 0 0 
0 4.46511e-11 0 0 2.49867e-11 0 0 0 0 
0 0 0 0 0 0 0 2.67745e-11 0 
0 1.52725e-14 0 0 0 0 0 0 0 
0 0 0 0 0 0 5.83005e-12 0 0 
0 0 0 0 0 0 0 0 1.52341e-12 
0 0 0 0 0 0 0 0 0 
0 0 1.05241e-11 0 0 0 0 0 0 
0 0 0 0 0 0 0 0 0 
0 0 0 0 0 0 0 0 0 
0 0 0 0 0 0 0 0 0 
0 0 0 0 0 0 0 3.91281e-13 0 
0 0 0 0 0 0 0 0 0 
1.49903e-11 0 0 0 0 7.87445e-11 8.32885e-11 0 0 
0 2.08996e-11 0 0 0 0 0 0 0 
0 0 0 0 0 1.67748e-11 0 0 0 
0 0 0 0 0 0 3.85338e-11 0 0 
0 0 0 0 1.08265e-11 0 8.12264e-11 7.89621e-11 0 
0 0 1.03108e-10 8.04775e-11 4.97405e-12 0 0 0 0 
0 0 0 0 0 4.18956e-11 0 0 0 
1.28531e-10 0 0 0 1.44136e-10 0 0 0 0 
2.47104e-11 0 1.77255e-10 0 0 0 0 0 5.6436e-11 
3.06825e-11 0 7.38303e-11 2.38612e-11 0 0 2.46549e-08 0 0 
3.45729e-11 0 0 0 0 1.22926e-11 0 0 0 
0 0 4.76243e-11 0 0 8.08904e-11 6.88041e-11 0 0 
9.97156e-11 7.73848e-11 2.60421e-11 0 7.33135e-11 0 0 0 1.32772e-10 
0 0 0 3.07031e-11 0 1.75093e-10 0 0 0 
1.07163e-10 0 0 0 5.29274e-11 5.97343e-11 0 9.09433e-12 0 
0 0 9.14691e-12 3.09172e-11 0 0 0 0 0 
0 0 0 0 0 2.37014e-11 0 8.29082e-11 0 
0 0 6.13487e-11 0 8.06846e-11 0 0 0 0 
0 0 0 0 0 0 0 0 0 
0 1.18602e-11 0 0 0 0 0 0 0 
0 0 1.42574e-11 9.52116e-11 1.92909e-11 0 0 0 0 
0 5.53743e-11 0 3.46142e-11 3.27241e-11 0 0 0 1.18406e-11 
0 2.02625e-11 0 0 0 0 0 0 0 
0 0 0 0 0 0 0 0 0 
0 0 0 0 0 0 0 0 0 
0 0 0 0 0 0 0 0 0 
0 0 0 0 0 0 0 0 0 
0 0 0 0 0 0 0 0 0 
0 3.18555e-12 0 5.00699e-11 0 0 0 0 0 
0 0 0 4.56412e-11 4.98473e-11 0 0 0 0 
0 2.63496e-08 0 2.40721e-10 0 0 7.32662e-12 0 0 
0 1.23619e-10 0 0 0 0 0 0 4.16537e-11 
3.0016e-11 0 0 0 0 3.00419e-11 6.91813e-11 0 0 
0 0 0 0 8.00852e-12 0 0 0 0 
0 0 0 0 0 0 5.06558e-11 0 0 
0 0 9.17727e-11 0 3.17161e-11 0 0 0 0 
0 0 0 0 0 0 5.3528e-11 8.60821e-12 0 
0 1.21239e-10 0 0 0 0 3.58549e-10 0 0 
0 0 0 0 0 0 0 1.51243e-11 0 
2.56261e-12 0 0 0 0 2.18562e-10 0 0 5.56501e-11 
0 0 0 3.64826e-11 4.70077e-11 2.71693e-11 0 0 0 
1.2508e-10 0 0 0 0 2.92526e-10 2.73367e-08 2.63844e-10 0 
0 0 1.22171e-10 0 0 9.15128e-11 0 0 0 
1.42523e-11 0 0 0 0 1.05283e-11 0 0 0 
0 5.6009e-11 1.19656e-10 0 0 0 0 4.1779e-11 6.22648e-11 
0 0 0 0 0 0 0 6.90877e-12 0 
0 0 0 0 7.94697e-12 0 0 0 0 
0 0 0 0 3.08214e-11 0 0 0 0 
0 0 7.3096e-11 0 1.78447e-12 2.4218e-10 0 0 0 
0 0 0 5.54429e-11 0 0 0 0 0 
0 0 7.15291e-12 0 0 0 0 0 0 
0 0 0 0 0 0 0 0 0 
0 0 0 0 0 0 0 0 0 
0 0 0 0 0 0 0 0 0 
0 0 0 0 0 0 0 0 0 
0 0 5.59448e-12 0 0 0 0 4.23535e-11 0 
0 6.50335e-11 0 0 2.47367e-08 0 3.53743e-11 0 0 
3.59677e-11 0 3.07353e-11 0 0 0 0 0 0 
3.54959e-10 0 0 0 0 1.98229e-11 1.37216e-10 0 0 
1.50986e-10 0 0 0 8.26925e-11 9.28919e-12 0 0 0 
0 0 3.90041e-11 1.57801e-11 0 0 4.28397e-11 0 0 
0 0 0 2.04683e-11 0 2.61379e-11 0 2.74963e-11 0 
0 0 0 0 0 2.43431e-10 2.02674e-10 0 0 
0 3.32451e-11 6.49086e-11 9.85917e-11 0 0 1.64093e-10 0 0 
3.88639e-11 0 0 0 0 0 1.0526e-10 9.33285e-11 0 
1.3992e-10 0 1.62384e-10 0 0 9.87044e-11 0 5.92053e-11 0 
0 0 1.75219e-11 0 0 0 0 0 0 
4.60487e-11 0 0 2.44652e-08 1.57567e-10 0 1.04826e-10 0 0 
0 0 0 0 0 1.05202e-10 0 0 1.46517e-10 
1.93797e-12 7.32678e-12 0 0 0 1.82223e-10 0 0 1.94373e-10 
0 0 0 0 0 0 1.63001e-10 0 3.70976e-11 
0 0 0 0 0 0 0 0 1.15993e-10 
0 0 0 6.66132e-11 1.55423e-10 0 0 0 0 
0 0 0 0 0 0 0 4.81785e-12 0 
0 0 0 0 0 0 9.97412e-13 0 8.42314e-12 
0 0 0 0 0 0 1.20368e-10 0 8.82946e-11 
0 0 0 2.49527e-08 0 0 0 0 6.95462e-11 
0 0 3.85556e-11 0 1.78599e-11 0 1.03971e-11 0 0 
0 9.44811e-12 0 0 0 0 0 0 0 
0 0 0 0 0 0 0 0 0 
0 0 0 0 0 0 0 0 0 
0 0 0 0 0 0 0 0 0 
0 0 0 0 0 0 0 0 0 
0 0 0 0 0 0 0 0 4.88326e-12 
0 1.80716e-10 8.3955e-11 1.235e-10 3.05548e-11 0 0 0 0 
0 0 0 0 0 0 0 0 0 
2.19285e-10 0 0 9.28585e-12 0 1.1518e-10 1.45413e-10 4.24353e-11 0 
0 0 0 0 0 0 3.00579e-13 0 0 
2.53573e-11 0 0 0 0 3.19274e-11 0 6.87505e-11 0 
0 0 0 0 2.04512e-11 0 0 2.01022e-11 0 
6.49842e-11 0 0 0 1.54803e-10 1.26782e-12 3.99937e-11 0 0 
2.9256e-10 0 0 2.96482e-10 0 0 0 0 0 
0 0 0 4.22936e-11 0 6.33249e-11 0 0 2.28074e-10 
0 0 0 0 5.22281e-11 1.37365e-12 0 0 0 
0 0 0 0 0 0 0 0 1.74337e-11 
0 0 0 0 9.61802e-11 0 0 4.42328e-11 0 
7.07892e-11 0 0 3.2478e-11 0 0 0 0 1.01573e-10 
0 0 0 0 1.55038e-10 2.7798e-10 2.7129e-08 0 0 
0 9.47794e-12 0 0 0 7.03627e-11 0 0 0 
0 3.15585e-12 0 1.63464e-13 7.24061e-11 0 1.63889e-10 8.3074e-11 0 
0 0 0 0 0 5.35003e-11 0 0 0 
0 0 0 0 0 0 0 0 0 
0 0 0 0 0 0 1.1252e-11 0 0 
0 0 0 3.30154e-11 5.9668e-11 0 0 1.86173e-11 3.23142e-11 
0 0 0 0 0 4.15207e-12 0 6.5324e-11 4.31756e-11 
0 0 0 0 0 6.64815e-12 0 0 0 
0 8.51944e-12 0 0 0 0 0 0 0 
0 0 0 0 0 0 0 0 0 
0 0 0 0 0 0 0 0 0 
0 0 0 0 0 0 0 0 0 
0 0 0 0 0 0 0 0 0 
0 0 0 1.59831e-12 0 0 6.74907e-11 1.77274e-11 0 
1.10058e-10 2.24066e-11 3.04382e-11 0 0 0 4.28768e-12 0 1.91136e-10 
0 0 2.80859e-11 0 0 2.7485e-10 0 0 2.09313e-10 
0 0 0 0 2.68304e-08 0 0 4.60388e-11 0 
4.21731e-11 0 0 0 6.96448e-11 0 0 0 0 
0 0 0 0 0 0 0 0 0 
0 0 1.72e-12 0 0 6.44258e-11 6.86891e-11 2.21041e-11 0 
0 0 0 0 0 0 0 0 0 
0 0 0 0 0 0 0 0 1.19239e-10 
0 2.00305e-11 1.80837e-10 1.08361e-10 4.06085e-12 0 1.89348e-11 0 0 
0 0 5.77803e-13 0 0 1.32317e-11 0 0 6.62191e-12 
0 0 0 9.65228e-11 0 0 0 0 3.61279e-11 
3.13832e-11 0 1.46232e-10 0 0 1.16856e-11 0 0 0 
0 8.58166e-11 0 0 0 0 0 1.25109e-10 0 
0 0 0 2.33356e-10 0 0 0 0 0 
0 0 0 0 0 4.99423e-11 0 0 0 
0 0 0 3.3029e-11 0 0 0 0 0 
0 0 0 4.62277e-11 5.32771e-11 9.96208e-11 7.90098e-11 0 0 
0 0 0 0 0 0 0 0 0 
0 0 0 3.23584e-11 0 0 0 0 0 
0 0 0 3.71911e-11 0 1.30034e-10 4.7062e-11 0 0 
0 1.94525e-10 0 0 0 0 0 0 0 
0 0 0 0 3.54899e-11 0 0 0 0 
0 0 0 0 0 0 0 0 0 
0 0 0 0 0 0 0 0 0 
0 0 0 0 0 0 0 0 0 
0 0 0 0 0 0 0 0 0 
0 0 0 0 0 0 0 0 0 
0 0 5.12325e-11 0 0 5.19478e-11 0 2.41279e-11 1.4741e-11 
0 0 0 0 7.10093e-13 0 0 0 0 
0 1.40576e-10 0 0 0 0 0 0 0 
0 6.7986e-11 2.5408e-10 0 0 9.53879e-11 0 0 0 
4.15775e-11 0 0 1.78826e-11 0 0 3.5327e-13 0 1.59181e-11 
0 0 0 0 0 0 2.91215e-11 0 6.6827e-11 
0 0 0 7.5288e-11 6.84568e-11 0 0 0 0 
1.72701e-10 0 0 3.03452e-08 0 0 0 3.48482e-08 0 
0 0 0 1.61635e-10 0 1.0769e-10 0 6.56595e-11 1.75654e-10 
1.75544e-11 2.62923e-11 7.91439e-11 0 0 0 0 6.08634e-11 0 
5.47092e-11 0 0 0 0 0 1.57438e-11 0 0 
0 0 0 0 0 0 0 0 0 
2.51817e-11 0 0 2.1759e-12 7.81115e-11 0 0 0 5.85988e-11 
0 0 0 1.64585e-11 0 0 0 6.12969e-11 0 
8.35039e-11 0 0 0 0 0 0 8.5611e-11 3.53833e-11 
0 0 0 0 0 0 1.54229e-10 0 0 
0 0 0 0 0 0 0 0 0 
0 0 0 0 0 7.35898e-11 6.51455e-11 0 0 
0 0 0 0 1.20557e-11 0 0 0 0 
0 3.71904e-11 0 6.5105e-11 0 0 0 0 0 
0 0 9.88754e-11 0 0 0 0 0 0 
0 0 5.18263e-11 6.60506e-11 2.25147e-11 1.01169e-10 0 5.47306e-11 1.38942e-10 
0 0 0 0 0 0 0 0 0 
0 0 0 0 0 0 0 0 0 
0 0 0 0 0 0 0 0 0 
0 0 0 0 0 0 0 0 0 
0 0 0 0 0 0 0 0 0 
0 0 0 0 0 0 0 0 0 
0 4.29553e-11 0 9.72248e-11 0 6.26412e-11 0 0 0 
0 0 0 1.16089e-10 3.90827e-11 4.49223e-11 0 9.30538e-11 0 
0 0 0 0 0 0 0 0 0 
0 0 0 0 0 1.18043e-11 0 0 0 
0 0 0 0 0 0 1.06331e-10 0 0 
0 0 8.22524e-11 0 0 0 8.95716e-12 0 0 
0 0 0 0 0 7.83828e-11 0 1.77924e-10 0 
0 0 2.52371e-10 0 0 0 0 0 0 
0 0 0 0 2.63268e-08 0 0 0 0 
0 0 0 0 0 0 0 0 0 
0 0 0 0 0 0 0 0 1.5658e-11 
0 0 0 0 1.93053e-11 0 0 0 6.05667e-11 
0 3.70915e-12 0 0 1.3076e-10 0 0 0 0 
5.91761e-11 0 0 0 0 0 1.03683e-10 0 8.07408e-11 
6.30023e-11 9.51308e-11 0 0 0 0 1.15386e-10 0 0 
1.0614e-10 2.49749e-08 0 0 0 1.18474e-10 4.3755e-11 0 0 
0 1.90885e-10 0 0 0 0 2.8388e-08 0 0 
6.90473e-11 0 0 0 0 0 0 0 0 
0 0 0 0 0 0 0 0 0 
0 4.50985e-11 0 0 0 1.07026e-10 6.19138e-11 0 0 
1.19198e-11 0 0 0 0 0 0 0 0 
0 0 0 0 0 0 0 0 7.72726e-11 
4.09972e-11 0 0 0 0 0 0 0 0 
0 0 0 0 0 0 0 0 0 
0 0 0 0 0 0 0 0 0 
0 0 0 0 0 0 0 0 0 
0 0 0 0 0 0 0 0 0 
0 0 0 0 0 0 2.46488e-11 0 0 
0 5.95761e-11 0 0 0 0 0 9.70941e-11 0 
3.95762e-10 0 0 0 3.24152e-11 7.75052e-11 0 0 0 
0 3.85848e-08 3.87952e-08 0 0 0 2.91985e-11 0 0 
0 0 7.01225e-11 1.15896e-11 0 0 0 0 0 
0 0 8.9531e-11 0 0 4.20772e-11 0 0 0 
0 0 1.71397e-11 0 0 0 0 0 0 
0 2.3418e-11 0 0 0 0 0 0 0 
0 0 0 0 3.34069e-08 0 0 2.17775e-10 0 
2.64034e-10 0 2.71531e-10 0 0 9.7147e-12 0 0 2.95977e-12 
0 0 0 0 0 5.07939e-11 0 0 0 
0 0 0 0 0 0 0 0 0 
0 8.17973e-11 0 0 0 0 0 0 0 
0 8.90556e-12 0 0 0 0 0 0 0 
0 0 0 1.17576e-10 0 0 0 1.62544e-10 0 
0 1.11271e-11 0 0 0 0 0 0 0 
0 7.54449e-11 6.75585e-12 0 9.99501e-11 5.29654e-11 0 2.14109e-10 0 
0 0 0 0 9.6682e-11 1.67219e-12 0 0 3.20415e-11 
0 0 0 0 0 0 0 0 0 
0 0 0 0 1.6316e-11 2.15483e-11 0 0 2.21094e-11 
0 0 0 0 2.62861e-10 0 0 1.37342e-10 0 
4.2549e-11 1.26611e-10 0 0 0 1.10114e-10 2.24751e-10 0 0 
0 0 0 0 0 0 0 0 2.00886e-11 
0 0 0 0 1.09086e-11 7.65487e-12 0 0 0 
0 0 0 0 0 0 0 0 0 
0 0 0 0 0 0 0 0 0 
0 0 0 0 0 0 0 0 0 
0 0 0 0 0 0 0 0 0 
0 0 0 0 2.30389e-11 0 0 0 0 
0 0 6.36351e-11 0 0 0 0 0 0 
0 6.36337e-12 0 0 4.76881e-11 0 8.57147e-11 0 0 
0 0 2.30497e-10 0 0 8.937e-11 1.05932e-10 0 0 
0 0 3.19825e-11 0 0 0 0 0 0 
4.98588e-12 0 0 8.88446e-11 0 1.10745e-10 0 0 0 
0 0 0 0 0 0 0 0 0 
0 0 0 0 0 0 7.30368e-12 0 1.76143e-11 
0 4.84555e-10 0 0 0 5.65619e-11 0 2.91913e-11 0 
5.5158e-11 0 0 0 0 0 8.14817e-11 0 0 
0 9.69904e-11 0 0 5.17493e-11 0 0 4.36427e-11 0 
0 0 0 0 0 2.75153e-11 0 0 0 
0 0 0 0 1.06534e-11 0 0 0 0 
0 0 0 0 0 0 0 0 0 
0 3.34379e-11 5.19424e-11 0 0 0 0 0 0 
3.82332e-11 0 0 8.9303e-11 0 0 0 0 0 
0 0 0 0 0 2.90881e-11 0 5.63156e-11 0 
5.60393e-11 0 0 2.18695e-10 0 0 0 3.97084e-11 0 
3.85027e-12 0 0 0 0 0 0 0 0 
0 0 0 0 0 0 0 0 0 
1.94071e-10 1.75359e-10 2.68644e-08 0 0 1.9678e-10 0 2.48251e-13 0 
0 0 5.24772e-11 0 0 2.22523e-11 0 0 0 
0 0 0 1.33979e-11 0 0 0 0 0 
0 0 0 0 0 0 0 0 0 
0 0 0 0 0 0 0 0 0 
0 0 0 0 0 0 0 0 0 
0 0 0 0 0 0 0 0 0 
0 0 0 0 0 0 0 0 0 
0 0 0 0 0 0 0 5.5695e-11 0 
0 2.93871e-11 0 0 0 2.6854e-08 0 3.83999e-10 1.10508e-10 
0 0 0 0 2.83661e-10 2.91815e-10 0 0 0 
5.12611e-11 1.95298e-10 0 0 1.14607e-10 0 0 0 0 
0 0 0 0 0 0 0 0 0 
0 0 0 3.35958e-11 1.02562e-10 9.71903e-11 0 3.02478e-10 0 
0 1.82693e-11 0 0 0 0 6.01111e-11 0 0 
0 0 0 1.04754e-10 1.96884e-11 0 3.80193e-11 9.94562e-13 0 
0 0 4.63976e-11 0 1.01603e-10 9.57434e-12 1.38649e-11 0 0 
9.2871e-11 0 6.81539e-12 1.45088e-11 0 0 0 5.8334e-11 0 
0 0 0 0 0 0 0 0 0 
0 0 0 0 3.19688e-11 0 4.50306e-11 0 0 
0 0 0 0 0 0 0 0 0 
0 0 0 0 0 0 4.59572e-11 0 0 
0 0 1.26831e-10 0 0 0 0 7.12422e-12 0 
0 0 0 0 0 5.4129e-11 0 0 1.80224e-11 
1.36667e-10 0 0 0 0 0 0 0 1.88265e-10 
2.73612e-10 0 0 0 9.65844e-11 0 0 2.90944e-11 0 
1.66476e-11 0 0 0 0 0 0 0 0 
0 0 0 0 0 0 0 0 0 
1.11036e-10 8.4362e-11 7.28543e-11 0 0 0 0 0 0 
0 0 1.97996e-10 2.96355e-11 4.1378e-11 1.15777e-10 0 3.11665e-08 0 
0 0 0 0 0 0 0 0 0 
0 0 0 0 0 0 0 0 0 
0 0 0 0 0 0 0 0 0 
0 0 0 0 0 0 0 0 0 
0 0 0 0 0 0 0 0 0 
0 0 0 0 0 0 0 0 0 
0 0 0 0 0 0 0 2.47613e-10 4.49399e-11 
0 0 0 0 2.80095e-10 1.5469e-10 1.20352e-13 4.65014e-12 0 
0 3.20362e-11 0 1.85015e-10 0 0 0 0 0 
2.97461e-11 0 0 0 0 0 0 0 0 
0 0 0 0 0 0 0 1.32657e-10 0 
0 1.27644e-10 0 0 0 0 5.81468e-11 0 2.76361e-11 
1.23966e-11 0 0 5.14077e-11 0 3.34625e-11 0 0 0 
0 0 0 0 0 4.8899e-11 2.10507e-10 3.09219e-11 0 
0 0 0 2.34654e-11 0 0 0 1.90765e-11 0 
0 9.82332e-11 0 0 0 0 0 0 0 
0 5.15229e-11 1.3271e-10 0 0 0 0 0 1.81074e-11 
1.68284e-11 0 5.82673e-11 0 0 0 0 0 0 
1.20377e-10 0 0 0 0 0 0 0 9.49354e-11 
0 0 0 0 0 0 0 0 0 
0 0 0 0 0 0 3.57421e-11 7.97988e-11 0 
1.90614e-11 1.05072e-10 0 0 0 0 0 0 0 
1.02502e-10 0 0 0 0 0 0 0 0 
0 2.65293e-08 0 0 0 0 0 4.54754e-11 0 
0 0 0 0 0 0 0 0 0 
2.4601e-11 0 0 0 1.16941e-10 0 0 0 3.24113e-10 
0 0 0 1.44088e-10 0 0 0 0 0 
0 0 7.92175e-11 0 0 0 0 0 0 
0 0 0 4.80426e-11 0 0 0 0 0 
0 0 0 0 0 0 0 0 0 
0 0 0 0 0 0 0 0 0 
0 0 0 0 0 0 0 0 0 