# vtk DataFile Version 5.1
vtk output
ASCII
DATASET STRUCTURED_POINTS
DIMENSIONS 250 250 1
SPACING 1 1 1
ORIGIN 0 0 0
POINT_DATA 62500
FIELD FieldData 6
feature_1 1 62500 float
0 0 0 0 0 0 0 0 0 
0 0 0 0 0 0 0 0 0 
0 0 0 0 0 0 0 0 0 
0 0 0 0 0 0 0 0 0 
0 0 0 0 0 0 0 0 0 
0 0 0 0 0 0 0 0 0 
0 0 0 0 0 0 0 0 0 
0 0 0 0 0 0 0 0 0 
0 0 0 0 0 0 0 0 0 
0 0 0 0 0 0 0 0 0 
0 0 0 0 0 0 0 0 0 
0 0 0 0 0 0 0 0 0 
0 0 0 0 0 0 0 0 0 
0 0 0 0 0 0 0 0 0 
0 0 0 0 0 0 0 0 0 
0 0 0 0 0 0 0 0 0 
0 0 0 0 0 0 0 0 0 
0 0 0 0 0 0 0 0 0 
0 0 0 0 0 0 0 0 0 
0 0 0 0 0 0 0 0 0 
0 0 0 0 0 0 0 0 0 
0 0 0 0 0 0 0 0 0 
0 0 0 0 0 0 0 0 0 
0 0 0 0 0 0 0 0 0 
0 0 0 0 0 0 0 0 0 
0 0 0 0 0 0 0 0 0 
0 0 0 0 0 0 0 0 0 
0 0 0 0 0 0 0 0 0 
0 0 0 0 0 0 0 0 0 
0 0 0 0 0 0 0 0 0 
0 0 0 0 0 0 0 0 0 
0 0 0 0 0 0 0 0 0 
0 0 0 0 0 0 0 0 0 
0 0 0 0 0 0 0 0 0 
0 0 0 0 0 0 0 0 0 
0 0 0 0 0 0 0 0 0 
0 0 0 0 0 0 0 0 0 
0 0 0 0 0 0 0 0 0 
0 0 0 0 0 0 0 0 0 
0 0 0 0 0 0 0 0 0 
0 0 0 0 0 0 0 0 0 
0 0 0 0 0 0 0 0 0 
0 0 0 0 0 0 0 0 0 
0 0 0 0 0 0 0 0 0 
0 0 0 0 0 0 0 0 0 
0 0 0 0 0 0 0 0 0 
0 0 0 0 0 0 0 0 0 
0 0 0 0 0 0 0 0 0 
0 0 0 0 0 0 0 0 0 
0 0 0 0 0 0 0 0 0 
0 0 0 0 0 0 0 0 0 
0 0 0 0 0 0 0 0 0 
0 0 0 0 0 0 0 0 0 
0 0 0 0 0 0 0 0 0 
0 0 0 0 0 0 0 0 0 
0 0 0 0 0 0 0 0 0 
0 0 0 0 0 0 0 0 0 
0 0 0 0 0 0 0 0 0 
0 0 0 0 0 0 0 0 0 
0 0 0 0 0 0 0 0 0 
0 0 0 0 0 0 0 0 0 
0 0 0 0 0 0 0 0 0 
0 0 0 0 0 0 0 0 0 
0 0 0 0 0 0 0 0 0 
0 0 0 0 0 0 0 0 0 
0 0 0 0 0 0 0 0 0 
0 0 0 0 0 0 0 0 0 
0 0 0 0 0 0 0 0 0 
0 0 0 0 0 0 0 0 0 
0 0 0 0 0 0 0 0 0 
0 0 0 0 0 0 0 0 0 
0 0 0 0 0 0 0 0 0 
0 0 0 0 0 0 0 0 0 
0 0 0 0 0 0 0 0 0 
0 0 0 0 0 0 0 0 0 
0 0 0 0 0 0 0 0 0 
0 0 0 0 0 0 0 0 0 
0 0 0 0 0 0 0 0 0 
0 0 0 0 0 7.61812e-14 0 0 0 
0 0 0 0 0 0 0 0 0 
0 0 0 0 0 0 0 0 0 
0 0 0 0 0 0 0 0 0 
0 0 0 0 0 0 0 0 0 
0 0 0 0 0 0 0 0 0 
0 0 0 0 0 0 0 0 0 
0 0 0 0 0 0 0 0 0 
0 0 0 0 0 0 0 0 0 
0 0 0 0 0 0 0 0 0 
0 0 0 0 0 0 0 0 0 
0 0 0 0 0 0 0 0 0 
0 0 0 0 0 0 0 0 0 
0 0 0 0 0 0 0 0 0 
0 0 0 0 0 0 0 0 0 
0 0 0 0 0 0 0 0 0 
0 0 0 0 0 0 0 0 0 
0 0 0 0 0 0 0 0 0 
0 0 0 0 0 0 0 0 0 
0 0 0 0 0 0 0 0 0 
0 0 0 0 0 0 0 0 0 
0 0 0 0 0 0 0 0 0 
0 0 0 0 0 0 0 0 0 
0 0 0 0 0 0 0 0 0 
0 0 0 0 0 0 0 0 0 
0 0 0 0 0 0 0 0 0 
0 0 0 0 0 0 0 0 0 
0 0 0 0 0 0 0 0 0 
0 0 0 0 0 0 0 0 0 
0 0 0 0 0 0 0 0 0 
0 0 0 0 0 0 0 0 0 
0 0 0 0 0 0 0 0 0 
0 0 0 0 0 0 0 0 0 
0 0 0 0 0 0 0 0 0 
0 0 0 0 0 0 0 0 0 
0 0 0 0 0 0 0 0 0 
0 0 0 0 0 0 0 0 0 
0 0 0 0 0 0 0 0 0 
0 0 0 0 0 0 0 0 0 
0 0 0 0 0 0 0 0 0 
0 0 0 0 0 0 0 0 0 
0 0 0 0 0 0 0 0 0 
0 0 0 0 0 0 0 0 0 
0 0 0 0 0 0 0 0 0 
0 0 0 0 0 0 0 0 0 
0 0 0 0 0 0 0 0 0 
0 0 0 0 0 0 0 0 0 
0 0 0 0 0 0 0 0 0 
0 0 0 0 0 0 0 0 0 
0 0 0 0 0 0 0 0 0 
0 0 0 0 0 0 0 0 0 
0 0 0 0 0 0 0 0 0 
0 0 0 0 0 0 0 0 0 
0 0 0 0 0 0 0 0 0 
0 0 0 0 1.22684e-12 0 0 0 0 
0 0 0 0 0 0 0 0 0 
0 0 0 0 0 0 0 0 0 
0 0 0 0 0 0 0 0 0 
0 0 0 0 0 0 0 0 0 
0 0 0 0 0 0 0 0 0 
0 0 0 0 0 0 0 0 0 
0 0 0 0 0 0 0 0 0 
0 0 0 0 0 0 0 0 0 
0 0 0 0 0 0 0 0 0 
0 0 0 0 0 0 0 0 0 
0 0 0 0 0 0 0 0 0 
0 0 0 0 0 0 0 0 0 
0 0 0 0 0 0 0 0 0 
0 0 0 0 0 0 0 0 0 
0 0 0 0 0 0 0 0 0 
0 0 0 0 0 0 0 0 0 
0 0 0 0 0 0 0 0 0 
0 0 0 0 0 0 0 0 0 
0 0 0 0 0 0 0 0 0 
0 0 0 0 0 0 0 0 0 
0 0 0 0 0 0 0 0 0 
0 0 0 0 0 0 0 0 0 
0 0 0 0 0 0 0 0 0 
0 0 0 0 0 0 0 0 0 
0 0 0 0 0 0 0 0 0 
0 0 0 0 0 0 0 0 0 
0 0 0 0 0 0 0 0 0 
0 0 0 0 0 0 0 0 0 
0 0 0 0 0 0 0 0 0 
0 0 0 0 0 0 0 0 0 
0 0 0 0 0 0 0 0 0 
0 0 0 0 0 0 0 0 0 
0 0 0 0 0 0 0 0 0 
0 0 0 0 0 0 0 0 0 
0 0 0 0 0 0 0 0 0 
0 0 0 0 0 0 0 0 0 
0 0 0 0 0 0 0 0 0 
0 0 0 0 0 0 0 0 0 
0 0 0 0 0 0 0 0 0 
0 0 0 0 0 0 0 0 0 
0 0 0 0 0 0 0 0 0 
0 0 0 0 0 0 0 0 0 
0 0 0 0 0 0 0 0 0 
0 0 1.26427e-14 0 0 0 0 0 0 
0 0 0 0 0 0 0 0 0 
0 0 0 0 0 0 0 0 0 
0 0 0 0 0 0 0 0 0 
0 0 0 0 0 0 0 0 0 
0 0 0 0 0 0 0 0 0 
0 0 0 0 0 0 0 0 0 
0 0 0 0 0 0 0 0 0 
0 0 0 0 0 0 0 0 0 
0 0 0 0 0 0 0 0 0 
0 0 0 0 0 0 0 0 0 
0 0 0 0 0 0 0 0 0 
0 0 0 0 0 0 0 0 0 
0 0 0 0 0 0 0 0 0 
0 0 0 0 0 0 0 0 0 
0 0 0 0 0 0 0 0 0 
0 0 0 0 0 0 0 0 0 
0 0 0 0 0 0 0 0 0 
0 0 0 0 0 0 0 0 0 
0 0 0 0 0 0 0 0 0 
0 0 0 0 0 0 0 0 0 
0 0 0 1.05699e-12 0 0 0 0 0 
0 0 0 0 0 0 0 0 0 
0 0 0 0 0 0 0 0 0 
0 0 0 0 0 0 0 0 0 
0 0 0 0 0 0 0 0 0 
0 0 0 0 0 0 0 0 0 
0 0 0 0 0 0 0 0 0 
0 0 0 0 0 0 0 0 0 
0 0 0 0 0 0 0 0 0 
0 0 0 0 0 0 0 0 0 
0 0 0 0 0 0 0 0 0 
0 0 0 0 0 0 0 0 0 
0 0 0 0 0 0 0 0 0 
0 0 0 0 0 0 0 0 0 
0 0 0 0 0 0 0 0 0 
0 0 0 0 0 0 0 0 0 
0 0 0 0 0 0 0 0 0 
0 0 0 0 0 0 0 0 0 
0 0 0 0 0 0 0 0 0 
0 0 0 0 0 0 0 0 0 
0 0 0 0 0 0 0 0 0 
0 0 0 0 0 0 0 0 0 
0 0 0 0 0 0 0 0 0 
0 0 0 0 0 0 0 0 0 
0 0 0 0 0 0 0 0 0 
0 0 0 0 0 0 0 0 0 
0 0 0 0 0 0 0 0 0 
0 0 0 0 0 0 0 0 0 
0 0 0 0 0 0 0 0 0 
0 0 0 0 0 0 0 0 0 
0 0 0 0 0 0 0 0 0 
0 0 0 0 0 0 0 0 0 
0 0 0 0 0 0 0 0 0 
0 0 0 0 0 0 0 0 0 
0 0 0 0 0 0 0 0 0 
0 0 0 0 0 0 0 0 0 
0 0 0 0 0 0 0 0 0 
0 0 0 0 0 0 0 0 0 
0 0 0 0 0 0 0 0 0 
0 0 0 0 0 0 0 0 0 
0 0 0 0 0 0 0 0 0 
0 0 0 0 0 0 0 0 0 
0 0 0 0 0 0 0 0 0 
0 0 0 0 0 0 0 0 0 
0 0 0 0 0 0 0 0 0 
0 0 0 0 0 0 0 0 0 
0 0 0 0 0 0 0 0 0 
0 0 0 0 0 0 0 0 0 
0 0 0 0 0 0 0 0 0 
0 0 0 0 0 0 0 0 0 
0 0 0 0 0 0 0 0 0 
0 0 0 0 0 0 0 0 0 
0 0 0 0 0 0 0 0 0 
0 0 0 0 0 0 0 0 0 
0 0 0 0 0 0 0 0 0 
0 0 0 0 0 0 0 0 0 
0 0 0 0 0 0 0 0 0 
0 0 0 0 0 0 0 0 0 
0 0 0 0 0 0 0 0 0 
0 0 0 0 0 0 0 0 0 
0 0 0 0 0 0 0 0 0 
0 0 0 0 0 0 0 0 0 
0 0 0 0 0 0 0 0 0 
0 0 0 0 0 0 0 0 0 
0 0 0 0 0 0 0 0 0 
0 0 0 0 0 0 0 0 0 
0 0 0 0 0 0 0 0 0 
0 0 0 0 0 0 0 0 0 
0 0 0 0 0 0 0 0 0 
0 0 0 0 0 0 0 0 0 
0 0 0 0 0 0 0 0 0 
0 0 0 0 0 0 0 0 0 
0 0 0 0 0 0 0 0 0 
0 0 0 0 0 0 0 0 0 
0 0 0 0 0 0 0 0 0 
0 0 0 0 0 0 0 0 0 
0 0 0 0 0 0 0 0 0 
0 0 0 0 0 0 0 0 0 
0 0 0 0 0 0 0 0 0 
0 0 0 0 0 0 0 0 0 
0 0 0 0 0 0 0 0 0 
0 0 0 0 0 0 0 0 0 
0 0 0 0 0 0 0 0 0 
0 0 0 0 0 0 0 0 0 
0 0 0 0 0 0 0 0 0 
0 0 0 0 0 0 0 0 0 
0 0 0 0 0 0 0 0 0 
0 0 0 0 0 0 0 0 0 
0 0 0 0 0 0 0 0 0 
0 0 0 0 0 0 0 0 0 
0 0 0 0 0 0 0 0 0 
0 0 0 0 0 0 0 0 0 
0 0 0 0 0 0 0 0 0 
0 0 0 0 0 0 0 0 0 
0 0 0 0 0 0 0 0 0 
0 0 0 0 0 0 0 0 0 
0 0 0 0 0 0 0 0 0 
0 0 0 0 0 0 0 0 0 
0 0 0 0 0 0 0 0 0 
0 0 0 0 0 0 0 0 0 
0 0 0 0 0 0 0 0 0 
0 0 0 0 0 0 0 0 0 
0 0 0 0 0 0 0 0 0 
0 0 0 0 0 0 0 0 0 
0 0 0 0 0 0 0 0 0 
0 0 0 0 0 0 0 0 0 
0 0 0 0 0 0 0 0 0 
0 0 0 0 0 0 0 0 0 
0 0 0 0 0 0 0 0 0 
0 0 0 0 0 0 0 0 0 
0 0 0 0 0 0 0 0 0 
0 0 0 0 0 0 0 0 0 
0 0 0 0 0 0 0 0 0 
0 0 0 0 0 0 0 0 0 
0 0 0 0 0 0 0 0 0 
0 0 0 0 0 0 0 0 0 
0 0 0 0 0 0 0 0 0 
0 0 0 0 0 0 0 0 0 
0 0 0 0 0 0 0 0 0 
0 0 0 0 0 0 0 0 0 
0 0 0 0 0 0 0 0 0 
0 0 0 0 0 0 0 0 0 
0 0 0 0 0 0 0 0 0 
0 0 0 0 0 0 0 0 0 
0 0 0 0 0 0 0 0 0 
0 0 0 0 0 0 0 0 0 
0 0 0 0 0 0 0 0 0 
0 0 0 0 0 0 0 0 0 
0 0 0 0 0 0 0 0 0 
0 0 0 0 0 0 0 0 0 
0 0 0 0 0 0 0 0 0 
0 0 0 0 0 0 0 0 0 
0 0 0 0 0 0 0 0 0 
0 0 0 0 0 0 0 0 0 
0 0 0 0 0 0 0 0 0 
0 0 0 0 0 0 0 0 0 
0 0 0 0 0 0 0 0 0 
0 0 0 0 0 0 0 0 0 
0 0 0 0 0 0 0 0 0 
0 0 0 0 0 0 0 0 0 
0 0 0 0 0 0 0 0 0 
0 0 0 0 0 0 0 0 0 
0 0 0 0 0 0 0 0 0 
0 0 0 0 0 0 0 0 0 
0 0 0 0 0 0 0 0 0 
0 0 0 0 0 0 0 0 0 
0 0 0 0 0 0 0 0 0 
0 0 0 0 0 0 0 0 0 
0 0 0 0 0 0 0 0 0 
0 0 1.16178e-12 0 0 0 0 0 0 
0 0 0 0 0 0 0 0 0 
0 0 0 0 0 0 0 0 0 
0 0 0 0 0 0 0 0 0 
0 0 0 0 0 0 0 0 0 
0 0 0 0 0 0 0 0 0 
0 0 0 0 0 0 0 0 0 
0 0 0 0 0 0 0 0 0 
0 0 0 0 0 0 0 0 0 
0 0 0 0 0 0 0 0 0 
0 0 0 0 0 0 0 0 0 
0 0 0 0 0 0 0 0 0 
0 0 0 0 0 0 0 0 0 
0 0 0 0 0 0 0 0 0 
0 0 0 0 0 0 0 0 0 
0 0 0 0 0 0 0 0 0 
0 0 0 0 0 0 0 0 0 
0 0 0 0 0 0 0 0 0 
0 0 0 0 0 0 0 0 0 
0 0 0 0 0 0 0 0 0 
0 0 0 0 0 0 0 0 0 
0 0 0 0 0 0 0 0 0 
0 0 0 0 0 0 0 0 0 
0 0 0 0 0 0 0 0 0 
0 0 0 0 0 0 0 0 0 
0 0 0 0 0 0 0 0 0 
0 0 0 0 0 0 0 0 0 
0 0 0 0 0 0 0 0 0 
0 0 0 0 0 0 0 0 0 
0 0 0 0 0 0 0 0 0 
0 0 0 0 0 0 0 0 0 
0 0 0 0 0 0 0 0 0 
0 0 0 0 0 0 0 0 0 
0 0 0 0 0 0 0 0 0 
0 0 0 0 0 0 0 0 0 
0 0 0 0 0 0 0 0 0 
0 0 0 0 0 0 0 0 0 
0 0 0 0 0 0 0 0 0 
0 0 0 0 0 0 0 0 0 
0 0 0 0 0 0 0 0 0 
0 0 0 0 0 0 0 0 0 
0 0 0 0 0 0 0 0 0 
0 0 0 0 0 0 0 0 0 
0 0 0 0 0 0 0 0 0 
0 0 0 0 0 0 0 0 0 
0 0 0 0 0 0 0 0 0 
0 0 0 0 0 0 0 0 0 
0 0 0 0 0 0 0 0 0 
0 0 0 0 0 0 0 0 0 
0 0 0 0 0 0 0 0 0 
0 0 0 0 0 0 0 0 0 
0 0 0 0 0 0 0 0 0 
0 0 0 0 0 0 0 0 0 
0 0 0 0 0 0 0 0 0 
0 0 0 0 0 0 0 0 0 
0 0 0 0 0 0 0 0 0 
0 0 0 0 0 0 0 0 0 
0 0 0 0 0 0 0 0 0 
0 0 0 0 0 0 0 0 0 
0 0 0 0 0 0 0 0 0 
0 0 0 0 0 0 0 0 0 
0 0 0 0 0 0 0 0 0 
0 0 0 0 0 0 0 0 0 
0 0 0 0 0 0 0 0 0 
0 0 0 0 0 0 0 0 0 
0 0 0 0 0 0 0 0 0 
0 0 0 0 0 0 0 0 0 
0 0 0 0 0 0 0 0 0 
0 0 0 0 0 0 0 0 0 
0 0 0 0 0 0 0 0 0 
0 0 0 0 0 0 0 0 0 
0 0 0 0 0 0 0 0 0 
0 0 0 0 0 0 0 0 0 
0 0 0 0 0 0 0 0 0 
0 0 0 0 0 0 0 0 0 
0 0 0 0 0 0 0 0 0 
0 0 0 0 0 0 0 0 0 
0 0 0 0 0 0 0 0 0 
0 0 0 0 0 0 0 0 0 
0 0 0 0 0 0 0 0 0 
0 0 0 0 0 0 0 0 0 
0 0 0 0 0 0 0 0 0 
0 0 0 0 0 0 0 0 0 
0 0 0 0 0 0 0 0 0 
0 0 0 0 0 0 0 0 0 
0 0 0 0 0 0 0 0 0 
0 0 0 0 0 0 0 0 0 
0 0 0 0 0 0 0 0 0 
0 0 0 0 0 0 0 0 0 
0 0 0 0 0 0 0 0 0 
0 0 0 0 0 0 0 0 0 
0 0 0 0 0 0 0 0 0 
0 0 0 0 0 0 0 0 0 
0 0 0 0 0 0 0 0 0 
0 0 0 0 0 0 0 0 0 
0 0 0 0 0 0 0 0 0 
0 0 0 0 0 0 0 0 0 
0 0 0 0 0 0 0 0 0 
0 0 0 0 0 0 0 0 0 
0 0 0 0 0 0 0 0 0 
0 0 0 0 0 0 0 0 0 
0 0 0 0 0 0 0 0 0 
0 0 0 0 0 0 0 0 0 
0 0 0 0 0 0 0 0 0 
0 0 0 0 0 0 0 0 0 
0 0 0 0 0 0 0 0 0 
0 0 0 0 0 0 0 0 0 
0 0 0 0 0 0 0 0 0 
0 0 0 0 0 0 0 0 0 
0 0 0 0 0 0 0 0 0 
0 0 0 0 0 0 0 0 0 
0 0 0 0 0 0 0 0 0 
0 0 0 0 0 0 0 0 0 
0 0 0 0 0 0 0 0 0 
0 0 0 0 4.74135e-12 0 0 0 0 
0 0 0 0 0 0 0 0 0 
0 0 0 0 0 0 0 0 0 
0 0 0 0 0 0 0 0 0 
0 0 0 0 0 0 0 0 0 
0 0 0 0 0 0 0 0 0 
0 0 0 0 0 0 0 0 0 
0 0 0 0 0 0 0 0 0 
0 0 0 0 0 0 0 0 0 
0 0 0 0 0 0 0 0 0 
0 0 0 0 0 0 0 0 0 
0 0 0 0 0 0 0 0 0 
0 0 0 0 0 0 0 0 0 
0 0 0 0 0 0 0 0 0 
0 0 0 0 0 0 0 0 0 
3.01513e-13 0 0 0 0 0 0 0 0 
0 0 0 0 0 0 0 0 0 
0 0 0 0 0 0 0 0 0 
0 0 0 0 0 0 0 0 0 
0 0 0 0 0 0 0 0 0 
0 2.52733e-12 0 0 0 0 0 0 0 
0 0 0 0 0 0 0 0 0 
0 0 0 0 0 0 0 0 0 
0 0 0 0 0 0 0 0 0 
0 0 0 0 0 0 0 0 0 
0 0 0 0 0 0 0 0 0 
0 0 0 0 0 0 0 0 0 
0 0 0 0 0 0 0 0 0 
0 0 0 0 0 0 0 0 0 
0 0 0 2.27775e-12 0 0 0 0 0 
0 0 0 0 0 0 0 0 0 
0 0 0 0 0 0 0 0 0 
0 0 0 0 0 0 0 0 0 
0 0 0 0 0 0 0 0 0 
0 0 0 0 0 0 0 0 0 
0 0 0 0 0 0 0 0 0 
0 0 0 0 0 0 0 0 0 
0 0 0 0 0 0 0 0 0 
0 0 0 0 0 0 0 0 0 
0 0 0 0 0 0 0 0 0 
0 0 0 0 0 0 0 0 0 
0 0 0 0 0 0 0 0 0 
0 0 0 0 0 0 0 0 0 
0 0 0 0 0 0 0 0 0 
0 0 0 0 0 0 0 0 0 
0 0 0 0 0 0 0 0 0 
0 0 0 0 0 0 0 0 0 
0 0 0 0 0 0 0 0 0 
0 0 0 0 0 0 0 0 0 
0 0 0 0 0 0 0 0 0 
0 0 0 2.71468e-12 0 0 0 0 0 
0 0 0 0 0 0 0 0 0 
0 0 0 0 0 0 0 0 0 
0 0 0 0 0 0 0 0 0 
0 0 0 0 0 0 0 0 0 
0 0 0 0 0 0 0 0 0 
0 0 0 0 0 0 0 0 0 
0 0 0 0 0 0 0 0 0 
0 0 0 0 0 0 0 0 0 
0 0 0 0 0 0 0 0 0 
0 0 0 0 0 0 0 0 0 
0 0 0 0 0 0 0 0 0 
0 0 0 0 0 0 0 0 0 
0 0 0 0 0 0 0 0 0 
0 0 0 0 0 0 0 0 0 
0 0 0 0 0 0 0 0 0 
0 0 0 0 0 0 0 0 0 
0 0 0 0 0 0 0 0 0 
0 0 0 0 0 0 0 0 0 
0 0 0 0 0 0 0 0 0 
0 0 0 0 0 0 0 0 0 
0 0 0 0 0 0 0 0 0 
0 0 0 0 0 0 0 0 0 
0 0 0 0 0 0 0 0 0 
0 0 0 0 0 8.52121e-13 0 0 0 
0 0 0 0 0 0 0 0 0 
0 0 0 0 0 0 0 0 0 
0 0 0 0 0 0 0 0 1.32469e-12 
0 0 0 0 0 0 0 0 0 
0 0 0 0 0 0 0 0 0 
0 0 0 0 0 0 0 4.58164e-12 0 
0 0 0 0 0 0 0 0 0 
0 0 0 2.03887e-12 0 0 0 0 0 
0 0 0 0 0 0 0 0 0 
0 0 0 0 0 1.92497e-12 0 0 0 
0 0 0 0 0 0 0 0 0 
0 0 0 0 0 0 0 0 0 
0 0 0 0 0 0 0 0 0 
0 0 0 0 0 0 0 0 0 
0 0 0 0 0 0 0 0 0 
0 0 0 0 0 0 0 0 0 
0 0 0 0 0 0 0 0 0 
0 0 0 0 0 0 0 0 0 
0 0 0 0 0 0 0 0 0 
0 0 0 0 0 0 0 0 0 
0 0 0 0 0 0 0 0 0 
0 0 0 0 0 0 0 0 0 
0 0 0 0 0 0 0 0 0 
0 0 0 0 0 0 0 0 0 
0 0 0 0 0 0 0 0 0 
0 0 0 0 0 0 0 0 0 
0 0 0 0 0 0 0 0 0 
0 0 0 0 0 0 0 0 0 
2.09237e-11 0 0 0 2.49579e-11 1.29221e-11 0 0 0 
0 0 0 0 0 0 0 0 0 
0 2.2236e-11 0 0 0 0 0 0 1.84505e-11 
0 0 0 0 0 0 0 0 0 
0 0 0 0 0 0 0 0 0 
0 0 0 0 0 0 0 0 0 
0 0 0 0 0 0 0 0 0 
0 0 0 0 0 0 0 0 0 
0 0 0 0 0 0 0 0 0 
0 0 0 0 0 0 0 0 0 
0 0 0 0 0 0 0 0 0 
0 0 0 0 0 0 0 0 0 
0 0 0 0 0 0 0 0 0 
0 0 0 0 0 0 0 0 0 
0 0 0 0 0 0 0 0 0 
0 5.46092e-12 0 0 5.91066e-13 0 0 0 0 
0 0 0 0 0 0 0 0 0 
0 0 0 0 0 0 0 0 0 
0 0 0 0 0 0 0 0 0 
0 0 0 0 0 0 0 0 0 
0 0 0 0 0 0 0 0 0 
0 0 0 0 0 0 0 0 0 
0 0 0 0 0 1.27722e-12 0 0 0 
0 0 0 0 0 2.96618e-12 0 0 0 
0 0 0 0 0 0 0 0 0 
0 0 0 0 0 0 0 0 0 
0 0 3.84983e-12 0 0 0 0 0 0 
0 0 0 0 0 1.69067e-11 1.65577e-11 0 0 
0 0 0 0 0 0 0 0 0 
0 0 0 0 0 0 0 0 0 
0 0 0 0 0 0 0 0 0 
1.44706e-11 0 0 0 0 2.38077e-11 0 0 0 
0 0 0 0 0 1.55031e-11 0 0 0 
0 0 0 0 0 0 0 0 0 
0 0 0 0 0 0 0 0 0 
0 0 0 0 0 0 0 0 0 
0 0 0 0 0 1.30131e-11 0 1.60023e-11 0 
0 0 0 0 0 0 0 0 0 
0 0 0 0 0 0 0 0 0 
0 0 0 0 0 0 0 0 0 
0 0 0 0 0 0 0 0 0 
0 0 0 0 0 0 0 0 0 
0 0 0 0 0 0 0 0 0 
0 0 0 0 0 0 0 2.97412e-12 0 
0 0 0 0 0 0 0 0 0 
0 0 0 0 0 0 0 0 0 
0 0 0 0 0 0 0 0 0 
0 0 0 0 0 0 0 0 0 
0 0 0 0 0 0 0 0 0 
0 0 0 0 0 0 0 0 0 
0 0 0 0 0 0 0 0 0 
0 0 0 0 0 0 0 0 0 
0 0 0 0 0 0 0 0 0 
0 0 0 0 0 0 0 0 0 
0 0 0 0 0 0 0 0 0 
0 0 0 0 0 1.80625e-11 0 2.30148e-11 0 
0 0 0 0 0 0 0 0 0 
0 0 0 0 2.41712e-11 0 3.00924e-11 0 0 
1.40015e-11 0 0 0 0 0 0 0 0 
2.70181e-11 0 0 0 0 0 0 0 0 
0 1.64802e-11 2.03118e-11 0 0 0 0 0 0 
0 0 0 0 0 0 0 0 0 
0 0 0 0 0 0 0 0 0 
0 0 0 0 0 0 9.13355e-12 0 0 
0 0 0 0 0 0 0 0 0 
0 0 0 0 0 0 0 0 0 
0 0 0 0 0 0 0 0 0 
0 0 0 0 0 0 0 0 0 
0 0 0 0 0 0 0 0 0 
0 0 0 0 0 0 0 0 0 
0 0 0 0 0 0 0 0 0 
0 0 7.8976e-12 0 0 0 0 0 0 
0 0 0 0 0 0 0 0 0 
0 0 0 0 0 0 0 0 0 
0 0 0 0 0 0 0 0 0 
0 0 0 0 0 0 0 0 0 
0 0 0 0 0 0 0 0 0 
0 0 0 0 0 0 0 0 0 
0 0 0 0 3.33263e-12 0 0 0 0 
0 0 0 0 0 0 0 0 0 
0 0 0 0 0 0 0 0 0 
0 0 9.65761e-12 1.49423e-11 0 0 0 9.76984e-12 0 
0 0 0 0 0 0 0 0 0 
0 2.33991e-11 0 3.17624e-12 0 0 0 0 0 
0 0 1.1294e-11 0 0 0 0 0 0 
0 0 0 0 0 0 0 0 0 
0 0 0 0 0 0 0 9.56157e-12 0 
0 0 0 0 4.16398e-12 0 0 0 0 
0 3.01767e-11 0 0 0 0 0 0 0 
1.25283e-11 0 0 0 0 0 0 0 0 
0 0 0 0 0 0 0 0 0 
7.54648e-12 0 0 0 0 0 0 9.86379e-12 0 
0 0 0 0 0 0 1.60097e-11 0 0 
0 0 0 0 0 0 0 0 0 
0 0 0 0 0 0 0 0 0 
0 1.38363e-12 0 0 0 0 0 0 0 
0 0 0 0 0 0 0 0 0 
0 0 0 0 0 0 0 0 0 
0 0 0 0 0 0 0 0 3.60244e-12 
0 0 0 1.51364e-11 0 0 0 0 0 
0 0 0 0 0 0 0 0 0 
0 0 0 0 0 0 0 0 0 
0 0 0 0 0 0 0 0 0 
0 0 0 0 0 0 0 0 0 
0 0 0 0 0 0 0 0 0 
0 0 0 0 0 0 0 0 0 
0 0 0 0 0 0 0 0 0 
0 0 0 0 0 0 0 0 0 
0 0 6.97685e-13 0 0 0 0 0 0 
0 0 0 0 0 0 0 0 0 
0 0 1.19527e-11 1.07778e-11 0 1.29319e-11 0 0 0 
4.07934e-11 0 3.53838e-11 0 0 0 0 0 0 
2.38927e-11 0 0 0 0 0 0 0 0 
0 2.89792e-11 0 0 0 0 0 0 0 
0 0 0 0 0 0 0 0 0 
0 0 0 4.52171e-12 0 0 0 0 0 
4.0195e-11 0 0 7.01944e-12 0 1.50484e-11 0 0 0 
0 0 0 0 0 0 1.24264e-11 0 0 
0 0 0 0 0 0 0 0 0 
2.89007e-11 0 0 0 0 0 0 0 0 
0 0 0 0 0 0 0 0 0 
0 0 0 2.91902e-12 0 0 1.57168e-11 0 0 
0 0 0 0 0 0 0 0 0 
0 0 0 0 0 0 0 0 0 
0 0 0 0 0 0 0 0 0 
0 0 0 0 0 0 0 0 0 
0 0 0 5.08934e-12 0 0 0 0 0 
0 0 0 0 0 0 0 0 0 
5.56829e-12 0 0 0 0 0 0 0 0 
0 0 0 0 0 0 0 0 0 
0 0 0 0 0 0 0 0 0 
0 0 0 0 0 0 0 0 0 
0 0 0 0 0 0 0 0 0 
0 0 0 0 0 0 0 0 0 
0 0 0 0 0 0 0 0 0 
0 0 0 0 0 0 1.06735e-11 0 0 
2.74909e-11 0 3.54476e-11 0 0 0 0 0 0 
0 0 0 0 0 0 0 0 0 
0 0 0 0 2.1171e-11 0 3.02021e-11 0 0 
2.52991e-11 2.78583e-11 0 0 0 4.34565e-11 0 0 0 
0 0 0 0 0 0 0 0 0 
0 0 0 2.11365e-11 7.31599e-11 0 0 3.42246e-11 0 
4.88423e-11 0 0 0 0 0 0 0 0 
0 3.1925e-11 0 0 0 0 0 0 0 
0 0 0 0 7.51065e-12 0 0 0 1.58945e-11 
0 0 0 0 0 0 0 0 0 
0 0 0 0 0 0 0 0 0 
3.57596e-13 0 0 6.13659e-11 2.08865e-11 0 0 0 0 
0 0 0 0 6.98045e-12 0 0 0 0 
0 1.1588e-11 0 0 0 0 0 0 0 
0 0 1.41964e-11 0 0 0 0 0 0 
0 0 0 0 0 0 0 0 0 
0 0 0 0 0 0 0 0 0 
0 0 0 0 0 0 0 0 0 
0 0 0 0 0 0 0 0 3.46444e-11 
0 0 0 0 0 0 0 0 0 
0 0 0 0 0 0 0 0 0 
0 0 0 0 0 0 0 0 0 
0 0 0 0 0 0 0 0 0 
0 0 0 0 0 0 0 0 0 
0 0 0 0 0 0 0 0 0 
0 0 0 0 0 0 0 0 0 
0 0 0 0 0 0 0 0 0 
0 0 0 0 0 0 0 0 0 
2.70891e-11 0 0 0 5.32569e-11 0 0 0 0 
0 0 0 0 0 0 0 0 0 
0 0 1.40315e-11 2.75824e-11 0 0 0 0 0 
0 0 0 0 2.29102e-11 0 0 0 0 
0 0 0 0 0 0 0 0 5.95598e-12 
2.04708e-11 0 6.41226e-11 1.02992e-10 0 0 0 0 0 
0 0 0 0 0 0 0 0 0 
4.34167e-11 4.94793e-11 0 0 6.22072e-11 0 2.51544e-11 0 0 
4.14113e-11 0 0 0 0 0 0 0 0 
0 0 0 0 2.39189e-11 0 0 0 0 
0 5.5971e-12 0 0 0 0 0 0 0 
0 0 0 0 5.39793e-11 0 0 1.05794e-11 0 
6.53097e-12 0 0 1.94445e-11 0 0 0 0 0 
0 0 0 0 0 0 0 0 0 
0 1.35409e-11 4.67107e-12 0 0 0 0 0 0 
0 2.40764e-11 0 0 0 0 0 0 0 
0 0 0 0 0 0 0 0 0 
0 0 0 0 0 0 0 9.03011e-12 0 
0 1.66398e-11 0 0 0 0 0 0 0 
0 0 0 0 9.50127e-12 0 0 0 0 
0 0 0 0 0 0 0 0 0 
0 0 0 0 0 0 0 0 0 
0 0 0 0 0 0 0 0 0 
0 0 0 0 0 0 0 0 0 
0 0 0 0 0 0 0 0 0 
0 0 0 0 0 0 0 0 0 
0 0 0 0 0 1.41197e-11 0 0 0 
0 0 0 0 1.05789e-11 0 0 0 0 
0 0 4.45094e-11 0 0 0 0 5.40191e-11 0 
0 0 0 0 0 2.18006e-11 0 0 0 
0 0 0 0 8.65381e-11 0 2.12052e-10 0 0 
0 0 5.22819e-11 3.6837e-11 2.09598e-11 0 0 2.41473e-11 0 
0 0 0 0 0 1.10027e-11 0 0 7.28134e-11 
0 0 0 0 0 0 8.18417e-11 0 0 
0 0 0 0 7.97271e-11 0 0 5.60552e-11 0 
0 0 0 0 0 2.37659e-11 0 0 0 
3.47198e-11 0 0 0 0 0 2.35899e-11 0 0 
0 0 0 0 0 0 0 0 0 
0 0 0 0 8.95275e-11 0 1.42254e-10 0 0 
0 3.61737e-11 0 0 0 0 3.19251e-11 0 0 
6.02919e-11 0 4.5028e-11 0 0 2.44533e-11 0 0 0 
0 0 0 0 1.74293e-11 0 0 0 0 
0 0 2.1346e-11 3.1894e-11 0 0 0 0 0 
0 0 0 0 0 0 0 0 0 
0 0 0 0 0 0 0 0 0 
0 0 0 0 0 0 0 0 0 
0 0 2.13383e-11 7.61186e-12 0 0 0 3.7056e-11 0 
0 0 0 0 0 0 0 0 0 
0 0 0 0 0 0 0 0 0 
0 0 0 0 0 0 0 0 0 
0 0 0 0 0 0 0 0 0 
0 0 0 0 0 0 0 0 0 
0 0 0 0 0 0 0 0 0 
0 0 0 0 0 0 0 3.93597e-11 0 
0 0 0 0 4.72767e-12 1.07045e-11 0 0 0 
0 0 0 0 0 4.9054e-11 0 0 0 
0 2.46276e-10 0 0 6.09275e-11 0 0 0 0 
5.42824e-12 0 0 2.01105e-11 0 0 0 0 0 
0 0 0 2.04568e-10 2.42292e-08 0 0 0 4.52516e-11 
0 2.63597e-11 0 0 0 0 0 0 0 
0 0 0 0 2.49078e-10 0 0 0 3.85967e-11 
0 1.39982e-11 0 2.82068e-11 0 0 0 0 6.07403e-11 
0 0 8.18967e-12 0 0 0 0 0 0 
0 0 0 0 0 0 0 0 3.6002e-11 
0 0 0 0 1.35204e-11 0 0 0 0 
0 0 5.12492e-11 0 0 0 0 0 0 
0 0 6.4579e-11 6.97997e-11 0 0 0 0 0 
1.32478e-10 1.40724e-11 0 0 0 9.44645e-11 5.56914e-11 0 0 
0 0 0 0 0 0 0 0 0 
0 2.13523e-11 0 0 0 0 0 0 0 
2.28335e-11 0 0 0 0 2.93834e-11 0 0 0 
0 0 0 0 0 0 0 0 0 
0 0 0 0 0 0 0 9.74665e-12 0 
0 0 1.91794e-11 0 0 0 0 0 0 
0 0 0 6.84849e-11 0 3.993e-11 0 0 0 
0 0 0 0 0 0 0 0 0 
0 0 0 0 0 0 0 0 0 
0 0 0 0 0 0 0 0 0 
0 0 0 0 0 0 0 0 0 
0 0 0 0 0 0 0 0 0 
0 0 0 0 0 0 0 0 0 
0 0 0 0 1.61929e-11 1.05069e-11 0 0 5.70477e-11 
0 0 0 4.87086e-11 8.85419e-12 2.86229e-11 0 0 0 
0 0 0 0 0 0 0 0 0 
0 3.9696e-11 0 9.98335e-13 0 2.60564e-11 7.15308e-11 0 8.19988e-12 
0 1.24215e-11 0 0 8.70429e-12 1.85822e-11 4.72366e-11 0 0 
0 0 0 0 0 0 5.03324e-11 0 2.5144e-11 
0 0 0 0 0 0 0 2.07025e-11 5.53879e-11 
3.03194e-11 1.36803e-10 2.53292e-08 0 0 0 0 0 0 
2.01619e-11 0 0 0 2.63068e-08 0 0 1.29551e-10 0 
0 5.63109e-12 5.43899e-11 0 2.51562e-11 1.02213e-10 1.43701e-10 0 0 
0 0 0 5.08533e-11 3.15369e-11 1.39703e-11 0 0 0 
0 0 0 1.89179e-11 0 0 0 0 0 
1.13771e-11 0 1.18609e-10 5.81569e-11 0 0 0 0 0 
0 0 0 2.50881e-08 0 0 0 2.90588e-11 0 
9.12639e-11 0 0 1.81501e-10 5.17325e-11 0 0 6.12325e-11 7.39692e-11 
0 0 3.85602e-11 0 0 3.33016e-11 0 0 0 
0 4.49857e-11 0 0 2.38343e-11 0 0 0 0 
0 0 0 0 0 0 0 3.29177e-11 0 
0 1.18993e-13 0 0 0 0 0 0 0 
0 0 0 0 0 0 0 0 0 
0 0 0 0 0 0 0 0 7.27886e-12 
0 0 0 0 0 0 0 0 0 
0 0 1.82566e-11 0 0 0 0 0 0 
0 0 0 0 0 0 0 0 0 
0 0 0 0 0 0 0 0 0 
0 0 0 0 0 0 0 0 0 
0 0 0 0 0 0 0 0 0 
0 0 0 0 0 0 0 0 0 
1.43885e-11 0 0 0 0 7.82087e-11 8.92521e-11 0 0 
0 2.3344e-11 0 0 0 0 0 0 0 
0 0 0 0 0 1.46252e-11 0 0 0 
0 0 0 0 0 0 3.93424e-11 0 0 
0 0 0 0 1.2474e-11 0 8.22035e-11 8.71819e-11 0 
0 0 1.09126e-10 8.14039e-11 0 0 0 0 0 
0 0 0 0 1.39471e-12 4.51653e-11 0 0 0 
1.34623e-10 0 0 0 1.44053e-10 0 0 0 0 
2.89698e-11 0 1.78563e-10 0 0 0 0 0 6.28128e-11 
2.59894e-11 0 7.30319e-11 2.00034e-11 0 0 2.45382e-08 0 0 
3.52589e-11 0 0 0 0 1.83958e-11 2.24751e-11 0 0 
0 0 4.25826e-11 0 0 9.10914e-11 7.2335e-11 0 0 
1.03397e-10 8.30072e-11 2.98438e-11 0 0 0 0 0 1.39677e-10 
0 0 0 3.78638e-11 0 1.74157e-10 0 0 0 
1.14104e-10 0 0 0 5.41424e-11 6.63607e-11 0 9.31651e-12 0 
0 0 1.16934e-11 3.08761e-11 0 0 0 0 0 
0 0 0 0 0 3.22417e-11 0 8.4648e-11 0 
0 0 5.91219e-11 0 2.90626e-11 0 0 0 0 
0 0 0 0 0 0 0 0 0 
0 7.65487e-12 0 0 0 0 0 1.81569e-11 0 
0 0 1.40946e-11 9.28182e-11 1.65311e-11 0 0 0 0 
0 5.81484e-11 0 3.73247e-11 3.48667e-11 0 0 0 1.27222e-11 
0 1.99291e-11 0 0 0 0 0 0 0 
0 0 0 0 0 0 0 0 0 
0 0 0 0 0 0 0 0 0 
0 0 0 0 0 0 0 0 0 
0 0 0 0 0 0 0 0 0 
0 0 0 0 0 0 0 0 0 
0 8.53956e-13 0 6.05603e-11 0 0 0 0 0 
0 0 0 4.48635e-11 4.74616e-11 0 0 0 0 
0 2.61682e-08 0 2.52554e-10 0 0 2.61295e-12 0 0 
0 1.25101e-10 0 0 0 0 0 0 0 
2.54723e-11 0 0 0 0 2.86594e-11 6.34365e-11 0 0 
0 0 0 0 9.70657e-12 0 0 0 0 
0 0 0 0 0 0 5.37403e-11 0 0 
0 0 9.49954e-11 0 3.25922e-11 0 0 0 0 
0 0 0 0 0 0 5.26738e-11 1.38399e-11 0 
0 1.24292e-10 0 0 0 0 3.73539e-10 0 0 
0 0 0 0 0 0 0 1.50661e-11 0 
0 0 0 0 0 2.25038e-10 0 0 6.17655e-11 
0 0 0 4.53561e-11 5.45808e-11 2.80474e-11 0 0 0 
1.30488e-10 0 0 0 0 0 2.71563e-08 2.68986e-10 0 
0 0 1.20835e-10 0 0 9.21536e-11 0 0 0 
1.09943e-11 0 0 0 0 8.44277e-12 0 0 0 
0 5.62761e-11 1.27569e-10 0 0 0 0 4.40562e-11 6.37962e-11 
0 0 0 0 0 0 0 8.14838e-12 0 
0 0 0 0 5.23113e-12 0 0 0 0 
0 0 0 0 3.6927e-11 0 0 0 0 
0 0 7.42692e-11 0 0 0 0 0 0 
0 0 0 5.56312e-11 0 0 0 0 0 
0 0 8.02193e-12 0 0 3.8727e-12 0 0 0 
0 0 0 0 0 0 0 0 0 
0 0 0 0 0 0 0 0 0 
0 0 0 0 0 0 0 0 0 
0 0 0 0 0 0 0 0 0 
0 0 9.90305e-12 0 0 0 0 4.08375e-11 0 
0 6.68222e-11 0 0 2.46163e-08 0 3.64669e-11 0 0 
3.86805e-11 0 3.82987e-11 0 0 0 0 0 0 
3.6701e-10 0 0 0 0 2.06348e-11 1.45171e-10 0 0 
1.55485e-10 0 0 0 8.04025e-11 9.43557e-12 0 0 0 
2.86803e-12 0 4.04866e-11 1.24875e-11 0 0 4.19781e-11 0 0 
0 0 0 2.07988e-11 0 2.95176e-11 0 2.52436e-11 0 
0 0 0 0 0 2.51038e-10 0 0 0 
0 2.78701e-11 6.71831e-11 9.79058e-11 0 0 1.64895e-10 0 0 
4.51556e-11 0 0 0 0 0 1.05464e-10 1.01614e-10 0 
1.45091e-10 0 1.63904e-10 0 0 0 0 6.0928e-11 0 
0 0 1.92386e-11 0 0 0 0 0 0 
4.63321e-11 0 0 2.43615e-08 1.61814e-10 0 1.07748e-10 0 0 
0 0 0 0 0 1.02798e-10 0 0 0 
5.22853e-12 9.83661e-12 0 0 0 1.88326e-10 0 0 2.02968e-10 
0 0 0 0 0 0 8.24047e-11 0 3.73302e-11 
0 0 0 0 0 0 0 0 1.24514e-10 
0 0 0 6.82558e-11 1.61669e-10 0 0 0 0 
0 0 0 0 0 0 0 1.29074e-11 0 
0 0 0 0 0 0 0 0 7.50463e-12 
0 0 0 0 0 0 1.26365e-10 0 8.2433e-11 
0 0 0 2.48167e-08 0 0 0 0 6.91114e-11 
0 0 3.91486e-11 0 2.186e-11 0 1.39758e-11 0 0 
0 7.29142e-12 0 0 0 0 0 0 0 
0 0 0 0 0 0 0 0 0 
0 0 0 0 0 0 0 0 0 
0 0 0 0 0 0 0 0 0 
0 0 0 0 0 0 0 0 0 
0 0 0 0 0 0 0 0 7.44122e-12 
0 1.86414e-10 8.9166e-11 1.22704e-10 3.42324e-11 0 0 0 0 
0 0 0 0 0 0 0 0 0 
2.27382e-10 0 0 8.62313e-12 0 1.08089e-10 1.49799e-10 5.03883e-11 0 
0 0 0 0 0 0 0 0 0 
2.98824e-11 0 0 0 0 3.97093e-11 0 7.25053e-11 0 
0 0 0 0 2.64993e-11 0 0 1.92171e-11 0 
6.64566e-11 0 0 0 1.56986e-10 0 4.56628e-11 0 0 
2.98493e-10 0 0 3.11836e-10 0 0 0 0 0 
0 0 0 3.8947e-11 0 6.45141e-11 0 0 2.34957e-10 
0 0 0 0 4.9573e-11 4.94338e-12 0 0 0 
0 0 0 0 0 0 0 0 1.93768e-11 
0 0 0 0 1.03333e-10 0 0 4.54863e-11 0 
6.93296e-11 0 0 2.77484e-11 0 0 0 0 1.06979e-10 
0 0 0 0 1.62585e-10 2.85443e-10 2.69506e-08 0 0 
0 1.24394e-11 0 0 0 6.32044e-11 0 0 0 
0 9.04822e-12 0 3.16363e-13 7.60746e-11 0 1.74879e-10 8.44409e-11 0 
0 0 0 0 0 5.10765e-11 0 0 0 
0 0 0 0 0 0 0 0 0 
0 0 6.9913e-13 0 0 0 1.44318e-11 0 0 
0 0 0 2.90733e-11 5.58086e-11 0 0 1.72634e-11 3.39433e-11 
0 0 0 0 0 8.38714e-12 0 6.30813e-11 4.24706e-11 
0 0 0 0 0 1.07608e-11 0 0 0 
0 1.1324e-11 0 0 0 0 0 0 0 
0 0 0 0 0 0 0 0 0 
0 0 0 0 0 0 0 0 0 
0 0 0 0 0 0 0 0 0 
0 0 0 0 0 0 0 0 0 
0 0 0 0 0 0 7.21497e-11 1.70882e-11 0 
1.14754e-10 2.71689e-11 3.09567e-11 0 0 0 8.07281e-12 0 2.00811e-10 
0 0 2.58143e-11 0 0 2.82385e-10 0 0 2.18288e-10 
0 0 0 0 2.66438e-08 0 0 4.4767e-11 0 
4.13868e-11 0 0 0 2.93109e-11 0 0 0 0 
0 0 0 0 0 0 0 0 0 
0 0 2.2873e-12 0 0 6.47625e-11 6.9736e-11 2.51336e-11 0 
0 0 0 0 0 0 0 0 0 
0 0 0 0 0 0 0 0 1.27221e-10 
0 1.5613e-11 1.84678e-10 1.07848e-10 6.29632e-12 0 1.97289e-11 0 0 
0 0 0 0 0 1.11765e-11 0 0 5.67246e-12 
0 0 0 1.00956e-10 0 0 0 0 2.85265e-11 
2.92211e-11 0 1.51585e-10 0 0 1.03059e-11 0 0 0 
0 8.43177e-11 0 0 0 0 0 1.25732e-10 0 
0 0 0 2.42943e-10 0 0 0 0 0 
0 0 0 0 0 5.05228e-11 0 0 0 
0 0 0 3.11855e-11 0 0 0 0 0 
0 0 0 5.28082e-11 6.32522e-11 9.83261e-11 8.91367e-11 0 0 
0 0 0 0 0 0 0 0 0 
0 0 0 2.8252e-11 0 0 0 0 0 
0 0 0 4.52231e-11 0 1.3913e-10 4.40634e-11 0 0 
0 1.99053e-10 0 0 0 0 0 0 0 
0 0 0 0 3.68657e-11 0 0 0 0 
0 0 0 0 0 0 0 0 0 
0 0 0 0 0 0 0 0 0 
0 0 0 0 0 0 0 0 0 
0 0 0 0 0 0 0 0 0 
0 0 0 0 0 0 0 0 0 
0 0 5.27076e-11 0 0 5.23583e-11 0 2.79518e-11 1.98701e-11 
0 0 0 0 0 0 0 0 0 
0 1.38272e-10 0 0 0 0 0 0 0 
0 6.68432e-11 2.5788e-10 0 0 8.91369e-11 0 0 0 
3.85529e-11 0 0 1.8657e-11 0 0 0 0 1.43386e-11 
0 0 0 0 0 0 2.93941e-11 0 0 
0 0 0 7.55119e-11 7.51318e-11 0 0 0 0 
1.77866e-10 0 0 3.00724e-08 0 0 0 3.45483e-08 0 
0 0 0 1.70793e-10 0 1.12042e-10 0 7.16136e-11 1.79199e-10 
1.82357e-11 2.17273e-11 8.22675e-11 0 0 0 0 5.97509e-11 0 
5.32637e-11 0 0 0 0 0 1.27326e-11 0 0 
0 0 0 0 0 0 0 0 0 
2.2769e-11 0 0 0 0 0 0 0 0 
0 0 0 1.82931e-11 0 0 0 5.95259e-11 0 
8.2781e-11 0 0 0 0 0 0 9.14541e-11 4.45965e-11 
0 0 0 0 0 0 1.59178e-10 0 0 
0 0 0 0 0 0 0 0 0 
0 0 0 0 0 6.97917e-11 6.46213e-11 0 0 
0 0 0 0 0 0 0 0 0 
0 3.46255e-11 0 6.50783e-11 0 0 0 0 0 
0 0 9.37984e-11 0 0 0 0 0 0 
0 0 5.05863e-11 6.84182e-11 2.38818e-11 1.06068e-10 0 5.12976e-11 1.41155e-10 
0 0 0 0 0 0 0 0 0 
0 0 0 0 0 0 0 0 0 
0 0 0 0 0 0 0 0 0 
0 0 0 0 0 0 0 0 0 
0 0 0 0 0 0 0 0 0 
0 0 0 0 0 0 0 0 0 
0 3.86023e-11 0 9.33948e-11 0 6.35426e-11 0 0 0 
0 0 0 1.15585e-10 4.12969e-11 4.24522e-11 1.98602e-11 1.01316e-10 0 
0 0 0 0 0 0 0 0 0 
0 0 0 0 0 8.73329e-12 0 0 0 
0 0 0 0 0 0 1.03133e-10 0 0 
0 0 8.28849e-11 0 0 0 7.16894e-12 0 0 
0 0 0 0 0 8.19936e-11 0 1.83907e-10 0 
0 0 2.52553e-10 0 0 0 0 0 0 
0 0 0 0 2.61406e-08 0 0 0 0 
0 0 0 0 0 0 0 0 0 
0 0 0 0 0 0 0 0 1.66247e-11 
0 0 0 0 1.61138e-11 0 0 0 6.41067e-11 
0 7.22974e-12 0 0 1.37994e-10 0 0 0 0 
5.55247e-11 0 0 0 0 0 1.09121e-10 0 8.80206e-11 
6.60932e-11 9.63606e-11 0 0 0 0 1.21603e-10 0 0 
1.02101e-10 2.48387e-08 0 0 0 0 4.55215e-11 0 0 
0 1.96218e-10 0 0 0 0 2.81931e-08 0 0 
6.79431e-11 0 0 0 0 0 0 0 0 
0 0 0 0 0 0 0 0 0 
0 4.71444e-11 0 0 0 1.05733e-10 6.08155e-11 0 0 
1.19845e-11 0 0 0 0 0 0 0 0 
0 0 0 0 0 0 0 0 8.14825e-11 
4.61638e-11 0 0 0 0 0 0 0 0 
0 0 0 0 0 0 0 0 0 
0 0 0 0 0 0 0 0 0 
0 0 0 0 0 0 0 0 0 
0 0 0 0 0 0 0 0 0 
0 0 0 0 0 0 2.08046e-11 0 0 
0 6.29972e-11 0 0 0 0 0 9.72984e-11 0 
4.06991e-10 0 0 0 3.06395e-11 7.74688e-11 0 0 0 
0 3.83183e-08 3.85163e-08 0 0 0 3.29664e-11 0 0 
0 0 6.64722e-11 6.09904e-12 0 0 0 0 0 
0 0 0 0 0 4.13556e-11 0 0 0 
0 0 2.77477e-11 0 0 0 0 0 0 
0 1.78585e-11 0 0 8.95411e-12 0 0 0 0 
0 0 0 0 3.31211e-08 0 0 2.23092e-10 0 
2.73874e-10 0 2.75018e-10 0 0 1.30401e-11 0 0 9.15848e-12 
0 0 0 0 0 5.49608e-11 0 0 0 
0 0 0 0 0 0 0 0 0 
0 7.6913e-11 0 0 0 0 0 0 0 
0 1.08966e-11 0 0 0 0 0 0 0 
0 0 0 1.18072e-10 0 0 0 1.69887e-10 0 
0 9.21455e-12 0 0 0 0 0 0 0 
0 7.36087e-11 8.3405e-12 0 1.04216e-10 5.1441e-11 0 2.22036e-10 0 
0 0 0 0 9.29898e-11 0 0 0 2.96777e-11 
0 0 0 0 0 0 0 0 0 
0 0 0 0 1.3241e-11 2.23886e-11 0 0 1.6719e-11 
0 0 0 0 2.63999e-10 0 0 1.43876e-10 0 
4.25629e-11 1.27928e-10 0 0 0 1.12808e-10 2.33556e-10 0 0 
0 0 0 0 0 0 0 0 1.64758e-11 
0 0 0 0 1.17203e-11 7.0702e-12 0 0 0 
0 0 0 0 0 0 0 0 0 
0 0 0 0 0 0 0 0 0 
0 0 0 0 0 0 0 0 0 
0 0 0 0 0 0 0 0 0 
0 0 0 0 1.99336e-11 0 0 0 0 
0 0 6.71884e-11 0 0 0 0 0 0 
0 1.55432e-11 0 0 4.7411e-11 0 8.4024e-11 0 0 
0 0 2.38123e-10 2.40581e-10 0 9.40675e-11 1.02736e-10 0 0 
0 0 3.42353e-11 0 0 0 0 0 0 
6.63117e-12 0 0 8.90229e-11 0 1.17609e-10 0 0 0 
0 0 0 0 0 0 0 0 0 
0 0 0 0 0 0 1.2238e-11 0 2.44166e-11 
0 5.02559e-10 0 0 0 6.64991e-11 0 2.20303e-11 0 
5.49698e-11 0 0 0 0 0 7.68981e-11 0 0 
0 9.27155e-11 0 0 5.3895e-11 0 0 5.03201e-11 0 
0 0 0 0 0 3.1122e-11 0 0 0 
0 0 0 0 5.96544e-12 0 0 0 0 
0 0 0 0 0 0 0 0 0 
0 3.63835e-11 5.03422e-11 0 0 0 0 0 0 
3.71111e-11 0 0 9.07971e-11 0 0 0 0 0 
0 0 0 0 0 2.46397e-11 0 0 0 
5.83523e-11 0 0 2.24368e-10 0 0 0 3.91878e-11 0 
3.43928e-12 0 0 0 0 0 0 0 0 
0 0 0 0 0 0 0 0 0 
2.00126e-10 1.7024e-10 2.66751e-08 0 0 1.96522e-10 0 0 0 
0 0 5.82033e-11 0 0 2.69458e-11 0 0 0 
0 0 0 1.62883e-11 0 0 0 0 0 
0 0 0 0 0 0 0 0 0 
0 0 0 0 0 0 0 0 0 
0 0 0 0 0 0 0 0 0 
0 0 0 0 0 0 0 0 0 
0 0 0 0 0 0 0 0 0 
0 0 0 0 0 0 0 5.04922e-11 0 
0 2.27522e-11 0 0 0 2.66641e-08 0 3.97632e-10 1.21694e-10 
0 0 0 0 2.82808e-10 3.05696e-10 0 0 0 
5.30575e-11 2.02987e-10 0 0 1.17218e-10 0 0 0 0 
0 0 0 0 0 0 0 0 0 
0 0 0 3.60716e-11 1.01769e-10 1.00308e-10 0 3.12145e-10 0 
0 2.20978e-11 0 0 0 0 6.55093e-11 0 0 
0 0 1.41628e-12 1.08565e-10 2.50531e-11 0 3.9466e-11 0 0 
0 0 4.34928e-11 0 1.06838e-10 8.30661e-12 1.74414e-11 0 0 
9.91644e-11 0 1.40902e-11 1.62654e-11 0 0 0 6.25023e-11 0 
0 0 0 0 0 0 0 0 0 
0 0 0 0 3.30975e-11 0 4.17428e-11 0 0 
0 0 0 0 0 0 0 0 0 
0 0 0 0 0 0 4.78905e-11 0 0 
0 0 1.2315e-10 0 0 0 0 1.00806e-11 0 
0 0 0 0 0 5.93695e-11 0 0 1.47328e-11 
0 0 0 0 0 0 0 0 1.96158e-10 
2.84878e-10 0 0 0 1.00283e-10 0 0 2.0876e-11 0 
1.84568e-11 0 0 0 0 0 0 0 0 
0 0 0 0 0 0 0 0 0 
1.15026e-10 8.76585e-11 7.23854e-11 0 0 0 0 0 0 
0 0 0 2.92236e-11 4.52935e-11 1.18526e-10 0 3.09426e-08 0 
0 0 0 0 0 0 0 0 0 
0 0 0 0 0 0 0 0 0 
0 0 0 0 0 0 0 0 0 
0 0 0 0 0 0 0 0 0 
0 0 0 0 0 0 0 0 0 
0 0 0 0 0 0 0 0 0 
0 0 0 0 0 0 0 2.5547e-10 4.69047e-11 
0 0 0 0 2.9128e-10 1.6427e-10 2.08064e-12 6.97215e-12 9.85942e-11 
0 3.77349e-11 0 1.93809e-10 0 0 0 0 0 
3.7564e-11 0 0 0 0 0 0 0 0 
0 0 0 0 0 0 0 1.31501e-10 0 
0 1.2983e-10 0 0 0 0 6.39021e-11 0 2.36793e-11 
1.28808e-11 0 0 5.64352e-11 1.25441e-11 3.92658e-11 0 0 0 
0 1.3026e-11 0 0 0 4.48409e-11 2.20425e-10 2.3177e-11 0 
0 0 0 2.3653e-11 0 0 0 2.26557e-11 0 
0 0 0 0 0 0 0 0 0 
0 6.13971e-11 1.38901e-10 0 0 0 0 0 1.98827e-11 
9.91859e-12 0 5.99103e-11 0 0 0 0 0 0 
1.24998e-10 0 0 0 0 0 0 0 1.0013e-10 
0 0 0 0 0 0 0 0 0 
0 0 0 0 0 0 3.84004e-11 8.07351e-11 0 
1.36764e-11 1.11685e-10 0 0 0 0 0 0 0 
1.05277e-10 0 0 0 0 0 0 0 0 
0 2.63601e-08 0 0 0 0 0 5.09411e-11 0 
0 0 0 0 0 0 0 0 0 
2.53366e-11 0 0 0 1.23497e-10 0 0 0 3.32391e-10 
0 0 0 1.47474e-10 0 0 0 0 0 
0 0 8.46563e-11 0 0 0 0 0 0 
0 0 0 4.66192e-11 0 0 0 0 0 
0 0 0 0 0 0 0 0 0 
0 0 0 0 0 0 0 0 0 
0 0 0 0 0 0 0 0 0 
0 0 0 0 0 0 0 0 0 
0 0 0 0 0 8.60558e-12 0 0 0 
0 0 0 0 0 0 1.36938e-10 0 0 
0 7.60852e-11 8.32119e-11 0 0 0 0 0 0 
0 0 0 0 0 0 0 7.61809e-12 0 
0 0 0 7.50933e-11 0 0 6.18807e-12 2.36927e-11 0 
0 0 0 0 0 0 0 0 0 
0 0 2.74429e-10 2.7001e-08 0 0 0 0 0 
0 0 0 0 0 0 0 5.23593e-11 6.84829e-12 
4.6734e-11 0 8.35423e-11 0 0 0 0 0 0 
0 0 0 0 0 0 0 0 0 
0 1.1098e-10 0 0 0 0 2.63732e-08 0 1.7047e-10 
0 0 0 0 0 0 5.22698e-11 0 0 
0 0 0 0 0 0 0 4.716e-11 2.67698e-10 
9.46278e-11 0 0 2.72689e-08 0 0 0 0 0 
0 0 0 0 0 3.43902e-11 0 0 5.87128e-11 
0 0 0 0 0 0 1.01041e-10 0 0 
4.44e-12 0 8.63559e-11 0 0 0 0 1.44192e-10 0 
9.00181e-12 0 0 0 0 0 0 0 0 