# vtk DataFile Version 5.1
vtk output
ASCII
DATASET STRUCTURED_POINTS
DIMENSIONS 250 250 1
SPACING 1 1 1
ORIGIN 0 0 0
POINT_DATA 62500
FIELD FieldData 6
feature_1 1 62500 float
0 0 0 0 0 0 0 0 0 
0 0 0 0 0 0 0 0 0 
0 0 0 0 0 0 0 0 0 
0 0 0 0 0 0 0 0 0 
0 0 0 0 0 0 0 0 0 
0 0 0 0 0 0 0 0 0 
0 0 0 0 0 0 0 0 0 
0 0 0 0 0 0 0 0 0 
0 0 0 0 0 0 0 0 0 
0 0 0 0 0 0 0 0 0 
0 0 0 0 0 0 0 0 0 
0 0 0 0 0 0 0 0 0 
0 0 0 0 0 0 0 0 0 
0 0 0 0 0 0 0 0 0 
0 0 0 0 0 0 0 0 0 
0 0 0 0 0 0 0 0 0 
0 0 0 0 0 0 0 0 0 
0 0 0 0 0 0 0 0 0 
0 0 0 0 3.62853e-13 0 0 0 0 
0 0 0 0 0 0 0 0 0 
0 0 0 0 0 0 0 0 0 
0 0 0 0 0 0 0 0 0 
0 0 0 0 0 0 0 0 0 
0 8.64239e-15 0 6.0204e-13 0 0 0 0 0 
0 0 0 0 0 0 0 0 0 
0 0 0 0 0 0 0 0 0 
0 0 0 0 0 0 0 0 0 
0 0 0 4.63731e-12 0 0 0 0 0 
0 0 0 0 0 0 0 0 0 
0 0 0 0 0 0 0 0 0 
0 0 0 0 0 0 0 0 0 
0 0 0 0 0 0 0 0 0 
0 0 0 0 0 0 0 0 0 
0 0 0 0 0 0 0 0 0 
0 0 0 0 0 0 0 0 0 
0 0 0 0 0 0 0 0 0 
0 0 0 0 0 0 0 0 0 
0 0 0 0 0 0 0 0 0 
0 0 0 0 0 0 0 0 0 
0 0 0 0 0 0 0 0 9.10083e-13 
0 3.61088e-12 0 0 0 0 0 0 0 
0 0 0 0 0 0 0 0 0 
0 0 0 0 0 0 0 0 0 
0 0 0 0 0 0 0 0 0 
0 0 0 0 0 0 0 0 0 
0 1.83198e-12 0 0 0 0 0 0 0 
0 0 0 0 0 0 0 0 0 
0 5.86493e-12 0 0 0 0 0 0 0 
0 0 0 0 0 1.30189e-12 0 0 0 
0 0 0 0 0 0 0 0 0 
0 0 0 0 0 0 0 0 0 
0 0 0 0 0 0 0 0 0 
0 0 0 0 0 0 0 0 0 
9.99432e-13 0 0 0 0 0 0 0 0 
0 0 0 0 0 0 0 0 0 
0 0 0 0 0 0 0 0 0 
0 0 0 0 0 0 0 0 0 
0 0 0 0 0 0 0 0 0 
0 0 0 0 0 0 0 0 0 
0 0 0 0 0 0 0 0 0 
0 0 0 0 0 0 0 0 0 
0 0 0 0 0 0 2.43016e-12 0 0 
0 0 0 0 0 0 0 0 0 
0 0 0 0 0 0 0 0 0 
0 0 0 0 0 0 0 0 0 
0 0 0 0 0 0 0 0 0 
0 0 0 0 0 1.76238e-12 0 0 0 
0 0 0 0 0 0 0 0 0 
0 0 0 0 0 0 0 0 0 
0 0 0 0 0 0 0 0 0 
0 0 0 0 0 0 0 0 0 
0 0 0 0 0 0 0 0 0 
0 0 0 0 0 0 0 0 0 
0 0 0 0 0 0 0 0 0 
0 0 0 0 0 0 0 0 0 
0 0 0 0 0 0 0 0 0 
0 0 0 0 0 0 0 0 0 
0 0 0 0 0 0 0 0 0 
0 0 0 0 0 0 0 0 0 
0 0 0 0 0 0 3.22893e-12 0 0 
0 0 0 0 0 0 0 0 0 
0 0 0 0 0 0 0 0 0 
0 0 0 3.50583e-12 0 0 0 0 0 
0 0 0 0 0 0 0 0 0 
0 4.76707e-13 0 0 0 0 0 0 0 
0 0 0 0 0 0 0 0 0 
0 0 0 0 0 0 0 0 0 
0 0 3.51504e-13 0 0 0 0 0 0 
0 0 0 0 0 0 0 0 0 
0 0 0 0 0 0 0 0 0 
0 0 0 0 0 0 0 0 0 
0 0 0 0 0 0 0 0 0 
0 0 0 1.74404e-12 0 0 0 0 0 
0 0 0 0 0 0 0 0 0 
4.96644e-13 0 0 0 0 0 0 0 0 
0 0 0 0 0 0 0 0 0 
0 0 0 0 0 0 0 0 0 
0 0 0 0 0 0 0 0 0 
0 0 0 0 0 0 0 0 0 
0 0 0 0 0 0 0 0 0 
0 0 0 0 0 0 0 0 0 
0 0 0 0 0 0 0 0 0 
0 0 0 0 0 0 0 0 0 
0 0 0 0 0 0 0 0 0 
0 0 0 0 0 0 0 6.62236e-13 0 
0 0 0 0 0 0 0 0 0 
0 0 0 0 0 0 0 0 0 
0 0 0 0 0 0 0 0 0 
0 0 1.82534e-12 0 0 0 0 0 0 
0 0 0 0 0 0 0 0 0 
0 0 0 0 0 0 0 0 0 
0 0 0 0 0 0 0 0 0 
0 0 0 0 0 0 0 0 0 
0 0 0 0 0 0 0 0 0 
0 0 0 0 0 0 0 0 0 
0 0 0 0 0 0 0 0 0 
0 0 0 0 0 0 0 0 0 
0 0 0 0 0 1.31314e-12 0 0 0 
0 0 0 0 0 0 0 0 0 
0 0 0 0 0 0 0 0 2.2662e-12 
0 0 0 0 0 0 0 0 0 
0 0 0 0 6.8039e-13 0 0 0 0 
0 0 0 0 1.51018e-12 0 0 0 0 
0 0 0 5.94989e-13 0 0 0 0 0 
0 0 0 0 0 0 0 0 0 
0 0 2.43954e-13 0 0 0 0 0 0 
0 0 0 0 0 0 0 0 0 
0 0 0 0 0 0 0 0 0 
0 0 0 0 0 0 0 1.48642e-12 0 
0 0 0 0 0 0 0 0 0 
0 0 0 0 0 0 0 0 0 
0 0 0 0 0 0 0 0 0 
0 0 0 0 0 0 0 0 0 
0 0 0 0 0 0 0 0 0 
0 0 0 0 0 0 0 0 0 
0 0 0 0 0 0 0 0 0 
0 0 0 0 0 0 0 0 0 
0 0 0 0 0 0 0 0 0 
0 0 0 0 0 0 0 0 0 
0 0 0 0 0 0 0 0 0 
0 0 0 0 0 0 0 0 0 
0 0 0 0 0 0 0 3.51098e-13 0 
0 0 0 0 0 0 0 0 0 
0 0 0 0 0 0 0 0 0 
0 0 0 0 0 0 0 0 0 
0 0 0 0 0 0 0 0 0 
0 0 0 0 0 0 0 0 0 
0 0 0 0 0 0 0 0 0 
0 0 0 0 0 0 0 0 0 
0 0 0 0 0 0 0 0 0 
0 0 0 0 0 0 0 0 0 
0 0 0 0 0 0 0 0 0 
0 0 0 0 0 0 0 0 0 
0 0 0 0 0 0 0 0 0 
0 0 0 0 0 0 0 0 0 
0 0 0 0 0 0 0 0 0 
0 0 0 0 0 0 0 0 0 
0 0 0 0 0 6.28121e-13 0 0 0 
0 0 0 0 0 0 0 0 0 
0 0 0 0 0 0 0 0 0 
0 0 0 0 0 0 0 0 0 
0 1.16036e-12 0 0 0 0 0 0 0 
0 0 0 0 0 0 0 0 0 
0 0 0 0 0 0 0 0 0 
0 0 0 0 0 0 0 0 0 
0 0 0 0 0 0 0 0 0 
0 0 0 0 6.61535e-13 0 0 0 0 
0 0 0 0 0 0 0 0 0 
0 0 0 0 0 0 0 0 0 
0 0 0 0 0 0 0 0 0 
0 0 0 0 0 0 0 0 0 
0 0 0 0 0 0 0 0 0 
0 0 0 0 0 0 0 0 0 
0 0 0 0 0 0 0 0 0 
0 0 0 0 0 0 0 0 0 
0 0 0 0 0 0 0 0 0 
0 0 0 0 0 0 0 0 4.21899e-12 
0 0 0 0 0 0 0 0 0 
0 0 0 0 0 0 0 0 0 
0 0 0 0 0 0 0 0 0 
0 0 0 2.0175e-12 0 0 0 0 0 
0 0 0 0 0 0 0 0 0 
0 0 0 0 0 0 0 0 0 
0 0 0 0 0 0 0 0 0 
0 0 0 0 0 0 0 0 0 
0 0 0 0 0 0 0 0 0 
0 0 0 0 0 0 0 0 0 
0 0 0 0 0 4.82789e-13 0 0 0 
0 0 0 0 0 0 0 0 0 
0 0 0 0 0 0 0 0 0 
0 0 0 0 0 0 0 0 0 
0 0 0 0 0 0 0 0 0 
0 0 0 0 0 0 0 0 0 
0 0 0 0 0 0 0 0 0 
0 0 0 0 0 0 0 0 0 
0 0 0 0 0 0 0 0 0 
0 0 0 0 0 0 3.20661e-12 0 0 
0 0 0 0 0 0 0 0 0 
0 0 0 0 0 0 0 0 0 
0 0 0 0 0 0 0 0 0 
0 0 0 0 0 0 0 1.57615e-12 0 
0 0 0 0 0 0 0 0 0 
0 0 0 0 0 0 0 0 0 
0 0 0 0 0 0 0 0 0 
0 0 0 0 0 0 0 0 0 
0 0 0 0 0 0 0 0 0 
0 0 0 0 0 0 0 0 0 
0 0 0 0 0 0 0 0 0 
0 0 0 0 0 0 0 0 0 
0 0 0 0 0 0 0 0 0 
0 0 0 0 0 0 0 0 0 
0 0 0 0 0 0 0 0 0 
0 0 0 0 0 0 0 0 0 
0 0 0 0 0 0 0 0 0 
0 0 0 0 0 0 0 0 0 
0 0 0 0 0 0 0 0 0 
6.05531e-12 0 0 0 0 0 0 0 0 
0 0 0 0 0 0 0 0 0 
0 0 0 0 0 0 0 0 0 
0 0 0 0 0 0 0 0 0 
0 0 0 0 0 0 0 0 0 
0 0 0 0 0 0 0 0 0 
0 0 0 0 0 0 0 0 0 
0 0 0 0 0 0 0 0 0 
0 0 0 0 0 0 0 0 0 
0 0 0 0 0 0 0 0 0 
0 0 0 0 0 0 0 0 0 
0 0 0 0 0 0 0 0 0 
0 0 0 0 0 0 0 0 0 
0 0 0 0 0 0 0 0 0 
0 0 0 0 0 0 0 0 0 
0 0 0 0 0 0 0 0 0 
0 0 0 0 0 0 0 0 0 
0 0 0 0 0 0 0 0 0 
0 0 0 0 0 0 0 0 0 
0 0 0 0 0 1.01365e-12 0 0 0 
0 0 0 0 0 0 0 0 0 
0 0 0 0 0 0 0 0 0 
0 0 0 0 0 0 0 0 0 
0 0 0 0 0 0 0 0 0 
0 0 0 0 0 0 0 0 0 
0 0 0 0 0 0 0 0 0 
0 0 0 0 0 0 0 0 5.35899e-14 
0 0 0 0 0 0 0 0 0 
0 0 0 0 0 0 1.46478e-12 0 0 
0 0 0 0 0 0 0 0 0 
0 0 0 0 0 0 0 0 0 
0 0 0 0 0 0 0 0 0 
0 0 0 0 0 0 0 0 0 
0 0 0 0 0 0 0 0 0 
0 0 0 0 0 0 0 0 0 
0 0 0 0 0 0 0 0 0 
0 0 0 0 0 0 0 0 0 
0 0 0 0 0 0 0 0 0 
0 0 0 0 0 0 0 0 0 
0 0 0 0 0 0 0 0 0 
0 0 0 0 0 0 0 0 0 
0 0 2.56825e-12 0 0 0 0 0 0 
0 0 0 0 0 0 0 0 0 
0 0 0 0 0 0 0 0 0 
0 0 0 0 0 0 0 0 0 
0 0 0 0 0 0 0 0 0 
0 0 0 0 0 0 0 0 0 
0 0 0 0 0 0 0 0 0 
0 0 0 0 0 0 0 0 0 
0 0 0 0 0 0 0 0 0 
0 0 0 0 0 0 0 0 0 
0 0 0 0 0 0 0 0 0 
0 0 0 0 0 0 0 0 0 
0 0 0 0 0 0 0 0 0 
0 0 0 0 0 0 0 0 0 
0 0 0 0 0 0 0 0 0 
0 0 0 0 0 0 0 0 0 
0 0 0 0 0 0 0 0 0 
0 0 0 0 0 0 0 0 0 
7.05814e-12 0 0 0 0 0 0 0 0 
0 0 0 0 0 0 0 0 0 
0 0 0 0 0 0 0 0 0 
0 0 0 0 0 0 0 0 0 
0 0 0 0 0 0 0 0 0 
0 0 0 0 0 0 0 0 0 
0 0 0 0 0 0 0 0 0 
0 0 0 0 0 0 0 0 0 
0 0 0 0 0 0 0 0 0 
0 0 0 0 0 0 0 0 0 
0 0 0 0 0 0 0 0 0 
0 0 0 0 0 0 0 0 0 
0 0 0 0 0 0 0 0 0 
0 0 0 0 0 0 0 0 0 
0 0 0 0 0 0 0 0 0 
0 0 0 0 0 0 0 0 0 
0 0 0 0 0 0 0 0 0 
0 0 0 0 0 0 0 0 0 
0 0 0 0 0 0 0 0 0 
0 0 0 0 0 0 0 0 0 
0 0 0 0 0 0 0 0 0 
0 0 0 0 0 0 0 0 0 
0 0 0 0 0 0 0 0 0 
0 0 0 0 0 0 3.14543e-13 0 0 
0 0 0 0 0 0 0 0 0 
0 0 0 0 0 1.04643e-13 0 0 0 
0 0 0 0 0 0 0 0 0 
0 0 0 0 0 0 0 0 0 
0 0 0 0 0 0 0 7.58569e-13 0 
0 0 0 0 0 0 0 0 0 
0 0 0 0 0 0 0 0 0 
0 0 0 0 0 0 0 0 0 
0 0 1.19457e-12 0 3.75605e-12 0 0 0 0 
0 0 0 0 0 0 0 0 0 
0 0 0 0 0 0 0 0 0 
0 0 0 0 0 0 0 0 0 
0 0 0 0 0 0 0 0 0 
0 0 0 0 0 0 0 0 0 
0 0 0 0 0 0 0 0 0 
0 0 0 0 0 0 0 0 0 
0 0 0 0 0 0 0 0 0 
0 0 0 0 0 0 0 0 0 
0 0 0 0 0 0 0 0 0 
0 0 0 0 0 0 0 0 0 
0 0 0 0 0 0 0 0 0 
0 0 0 0 0 0 0 0 0 
0 9.18568e-13 0 0 0 0 0 0 0 
0 0 0 0 0 0 0 0 0 
0 0 0 0 0 0 0 0 0 
0 0 0 0 0 0 0 0 0 
0 0 0 0 0 0 0 0 0 
0 0 0 0 0 0 0 0 0 
0 0 0 0 0 0 0 0 0 
5.79919e-12 0 0 0 0 0 0 0 0 
0 0 0 0 0 0 0 0 0 
0 0 0 0 0 0 0 0 0 
0 0 0 0 0 0 0 0 0 
0 0 0 0 0 0 0 0 0 
0 0 0 0 0 0 0 0 0 
0 0 0 0 0 0 0 0 0 
0 0 0 0 0 0 0 0 0 
0 0 0 0 0 0 0 0 0 
4.22297e-13 0 0 0 0 0 0 0 0 
0 0 0 0 0 0 0 0 0 
0 0 0 0 0 0 0 0 0 
0 0 0 0 0 0 0 0 0 
0 0 0 0 0 0 0 0 0 
0 0 0 0 0 0 0 0 0 
0 0 0 0 0 0 0 0 0 
0 0 0 0 0 0 0 0 0 
0 0 0 0 0 0 0 0 0 
0 0 0 0 0 0 0 0 0 
0 0 0 0 0 0 0 0 0 
0 0 0 0 0 0 0 0 0 
0 0 0 0 0 0 0 4.00799e-12 0 
0 0 0 0 0 0 0 0 0 
0 0 0 0 0 0 0 0 0 
0 0 0 0 0 0 0 0 0 
0 0 0 0 0 0 0 0 0 
0 0 0 0 0 0 0 0 0 
0 0 0 0 0 0 0 0 0 
0 0 0 0 0 0 0 0 0 
0 0 0 0 0 0 0 1.37279e-13 0 
0 0 0 0 0 0 0 0 0 
0 0 0 0 0 0 0 0 0 
0 0 0 0 0 0 0 0 0 
0 0 0 0 0 0 0 0 0 
0 0 0 0 0 0 0 0 0 
0 0 0 0 0 0 0 0 0 
0 0 0 0 0 0 0 0 0 
0 0 0 0 1.25781e-12 0 0 0 0 
0 0 0 0 0 0 0 0 0 
0 0 0 0 0 0 0 0 0 
0 0 0 0 0 0 0 0 0 
0 0 0 0 0 0 0 0 0 
0 0 0 0 0 0 0 0 0 
0 0 0 1.22638e-12 0 0 0 0 0 
0 0 0 0 0 0 0 0 0 
0 0 0 0 0 0 0 0 0 
0 0 0 0 0 0 0 0 0 
0 0 0 0 0 0 0 0 0 
0 0 0 0 0 0 0 0 0 
0 0 0 0 0 0 0 0 0 
0 0 0 0 0 0 0 0 0 
4.72362e-12 0 0 0 0 0 0 0 0 
0 0 0 0 0 0 0 0 0 
0 0 0 0 0 0 0 0 0 
0 0 0 0 0 0 0 0 0 
0 0 0 0 0 0 0 0 0 
0 0 0 0 0 0 0 0 0 
0 0 0 0 0 0 0 0 0 
0 0 0 0 0 0 0 0 0 
0 0 0 0 0 0 0 0 0 
0 0 0 0 0 0 0 0 0 
0 2.07796e-12 0 0 0 0 0 0 0 
0 0 1.71877e-13 0 0 0 0 1.06378e-12 0 
0 0 0 0 0 0 0 0 6.87333e-12 
0 0 3.17625e-12 0 0 0 0 0 0 
0 0 0 1.50688e-12 0 0 0 0 0 
0 0 0 0 0 0 0 0 0 
0 0 0 0 0 0 0 0 0 
0 0 0 0 0 0 0 0 0 
0 0 0 0 0 0 0 0 0 
0 0 0 0 0 0 0 0 0 
0 0 0 0 0 0 0 0 0 
0 0 0 1.74514e-12 0 0 0 0 0 
0 0 0 0 0 0 0 0 0 
0 0 0 0 0 0 0 0 0 
0 0 0 0 0 0 0 0 0 
0 0 0 0 0 0 0 0 0 
0 0 0 0 0 0 0 0 0 
0 0 0 0 0 0 0 0 0 
0 0 0 0 0 0 0 0 0 
0 0 0 0 0 0 0 0 0 
0 0 0 0 0 0 0 0 0 
0 0 0 1.99401e-12 0 0 0 0 0 
0 0 0 0 0 0 0 0 0 
0 0 0 0 0 0 0 0 0 
0 0 0 0 0 0 0 0 0 
0 0 0 0 0 0 0 0 0 
0 0 0 0 0 0 0 0 0 
0 0 0 0 0 0 0 0 0 
0 0 0 0 0 0 0 0 0 
0 0 0 0 0 0 0 0 0 
0 0 0 0 0 0 0 0 0 
0 0 0 0 0 0 0 0 0 
0 0 0 0 0 0 0 0 0 
0 0 0 0 0 0 0 0 0 
0 0 0 0 0 0 0 0 0 
0 3.40591e-12 0 0 2.30811e-12 0 0 0 0 
0 0 0 0 0 0 0 0 0 
0 0 0 0 0 0 0 0 1.07171e-12 
0 0 0 0 0 0 0 0 0 
0 0 0 0 0 0 0 0 0 
0 0 0 0 0 0 0 0 0 
0 0 0 0 0 0 0 0 0 
0 0 0 0 0 0 0 0 0 
0 0 0 0 0 0 0 0 0 
0 0 0 0 0 0 0 0 0 
0 0 0 0 0 0 0 0 0 
0 0 0 0 0 0 0 0 0 
0 0 0 0 0 0 0 0 0 
0 0 0 0 0 0 0 0 0 
0 0 0 0 0 0 0 0 0 
0 0 0 0 0 0 0 0 0 
0 0 0 0 0 0 2.99363e-12 0 0 
0 0 0 0 0 0 0 0 0 
0 0 0 0 0 0 0 0 0 
0 0 0 0 0 0 0 0 0 
0 0 0 0 0 0 0 0 0 
0 0 0 0 0 0 0 0 0 
0 0 0 0 0 0 0 0 0 
0 0 0 4.57995e-12 0 0 0 0 0 
0 0 0 0 0 0 0 0 0 
0 0 0 0 0 0 0 0 0 
0 0 0 0 0 0 0 0 0 
0 0 0 0 0 0 0 0 0 
8.44982e-13 0 0 0 0 0 0 0 0 
0 0 0 0 0 0 0 0 0 
0 0 0 0 0 0 0 0 0 
0 0 0 0 0 0 0 1.01196e-12 0 
0 0 0 0 0 0 0 0 0 
0 0 0 0 0 0 0 0 0 
0 0 0 0 0 0 0 0 0 
0 0 0 0 0 0 0 0 0 
0 0 0 0 1.12262e-11 0 0 0 0 
0 0 0 0 0 0 0 0 0 
0 0 0 0 0 0 0 0 0 
0 0 0 0 0 0 0 0 0 
0 0 0 0 0 0 0 0 0 
0 0 0 0 0 0 0 0 0 
0 0 0 0 0 0 0 0 0 
0 0 0 0 0 0 0 0 0 
0 0 0 0 0 0 0 0 0 
0 0 0 0 0 0 0 0 0 
0 0 0 0 0 2.57577e-12 0 0 0 
0 0 0 0 0 0 0 0 0 
0 0 0 0 0 0 9.19951e-13 0 0 
0 0 0 0 0 0 0 0 0 
0 0 0 0 0 0 0 0 0 
9.39368e-13 0 0 0 0 0 0 0 0 
0 0 0 0 0 0 0 0 0 
0 0 0 0 0 0 0 0 0 
0 0 0 0 0 0 4.00824e-12 0 0 
0 0 1.00778e-12 0 0 0 0 0 0 
0 6.19228e-12 0 5.45339e-12 0 0 0 0 0 
0 0 0 0 0 0 0 0 0 
0 0 0 0 0 0 0 0 0 
0 0 0 0 0 0 0 0 0 
0 0 0 0 0 0 0 0 0 
0 0 0 0 0 0 0 0 0 
0 0 0 0 0 0 0 0 0 
0 0 0 0 0 0 0 0 3.46686e-13 
0 0 0 0 0 0 0 0 0 
0 0 0 9.32458e-13 0 0 0 0 0 
0 0 0 0 0 0 0 0 0 
0 0 0 0 0 0 0 0 0 
0 0 0 0 0 0 0 0 0 
0 0 0 0 0 0 0 0 0 
0 0 0 0 0 0 0 0 0 
0 0 0 0 0 0 0 0 0 
0 0 0 0 0 0 0 0 0 
0 0 0 0 0 0 0 0 0 
0 0 0 0 0 0 0 0 0 
0 0 0 0 0 0 0 0 0 
0 0 0 0 0 0 0 0 0 
0 0 0 0 0 0 0 0 0 
0 0 0 0 8.12617e-13 0 0 0 0 
0 0 0 0 0 0 0 0 5.15221e-12 
0 0 0 0 0 0 0 0 0 
0 0 0 0 0 0 0 0 0 
0 0 0 0 3.7993e-12 0 0 0 0 
0 0 0 0 0 0 0 0 7.18259e-12 
0 0 0 0 0 0 0 0 0 
0 0 0 0 0 0 0 0 0 
0 0 0 9.5113e-12 0 0 0 0 0 
0 0 0 0 0 0 0 0 0 
0 0 0 8.28682e-12 0 0 0 0 0 
0 0 0 0 0 0 4.09332e-12 0 0 
0 0 0 0 0 0 0 0 0 
0 0 0 0 0 0 0 0 0 
0 0 0 0 0 0 0 0 0 
0 0 0 0 0 0 0 0 0 
0 0 0 0 0 0 0 0 0 
0 0 0 0 0 0 0 0 0 
0 0 0 0 0 0 0 0 0 
0 0 0 0 0 0 0 0 0 
0 0 0 0 0 0 0 0 0 
0 0 0 0 0 0 0 0 0 
0 0 0 0 0 0 0 0 0 
0 0 0 0 0 0 0 0 0 
0 0 0 0 0 0 0 0 0 
0 0 0 0 0 0 0 0 0 
0 0 0 0 0 0 0 0 0 
0 0 0 0 0 0 0 0 0 
0 0 0 0 0 0 0 0 0 
0 0 0 0 0 0 0 0 0 
0 0 0 0 0 0 0 0 0 
0 0 0 0 0 0 0 0 0 
0 0 0 0 0 7.98634e-12 0 0 0 
0 0 0 0 0 0 0 0 0 
0 0 0 0 0 0 0 0 0 
0 0 0 0 0 0 0 0 0 
0 0 0 0 0 0 0 0 0 
0 0 0 0 0 0 0 0 0 
0 0 0 0 0 0 0 0 0 
0 0 0 0 0 0 0 0 0 
0 0 0 0 0 0 0 0 0 
0 0 0 0 0 0 0 0 0 
0 0 0 0 0 0 0 0 0 
0 0 0 0 0 0 0 0 0 
0 0 0 0 0 0 0 0 0 
0 0 0 0 0 0 0 5.11756e-12 0 
0 0 0 0 0 0 0 0 0 
0 0 0 3.65723e-14 0 0 0 0 0 
0 0 0 0 0 0 0 0 0 
0 0 0 0 0 0 0 0 0 
0 0 0 0 0 0 0 0 0 
0 0 0 0 0 0 0 0 0 
0 0 0 0 0 0 0 0 0 
0 0 0 0 0 0 0 0 0 
0 0 0 0 0 0 0 0 0 
0 0 0 0 0 0 0 0 0 
0 0 0 0 0 0 0 0 0 
0 0 0 0 0 0 0 0 0 
0 0 0 0 0 0 0 0 0 
0 0 0 0 0 0 0 1.59638e-12 0 
0 0 0 0 0 0 0 0 0 
1.94379e-11 1.50649e-12 0 0 2.34642e-11 4.33564e-12 0 0 0 
0 0 0 0 0 0 0 0 0 
0 2.26269e-11 0 0 0 0 0 0 1.47008e-11 
0 0 0 0 0 0 0 0 0 
0 0 0 0 0 0 0 0 0 
0 0 0 0 0 0 0 0 0 
0 0 0 0 0 0 0 0 0 
0 0 0 0 0 0 0 0 3.91237e-12 
0 0 0 0 0 0 0 0 0 
0 0 0 0 0 0 0 0 0 
0 0 0 0 0 0 0 0 0 
0 0 0 0 0 0 0 0 0 
0 0 0 0 0 0 0 0 0 
0 0 0 0 0 0 0 0 0 
0 0 0 0 0 0 0 0 0 
0 1.59183e-12 0 0 0 0 0 0 0 
0 0 0 0 0 0 0 0 0 
0 0 0 0 0 0 0 0 0 
0 0 0 0 0 0 0 0 0 
0 0 0 0 0 0 0 0 0 
0 0 0 0 0 0 6.79925e-14 0 0 
0 0 0 0 0 0 0 0 0 
0 0 0 0 0 0 0 0 0 
0 0 0 0 0 0 0 0 0 
0 0 0 0 0 0 0 0 0 
0 0 0 0 0 0 0 0 0 
0 0 1.13898e-11 0 0 0 0 0 0 
0 0 0 0 0 2.51991e-11 1.81822e-11 0 0 
0 0 0 0 0 6.04899e-13 0 0 0 
0 0 6.91912e-14 0 0 0 0 0 0 
0 0 0 0 0 0 0 0 0 
1.02456e-11 0 0 0 0 1.85635e-11 0 0 0 
0 0 0 0 0 3.78325e-12 0 0 1.20715e-12 
0 0 0 0 0 0 0 0 0 
0 0 0 0 0 0 0 0 0 
0 0 0 0 0 0 0 0 0 
0 0 0 0 0 1.21495e-11 0 1.52358e-11 0 
0 0 0 0 0 0 0 3.10425e-13 0 
0 0 0 0 0 0 0 0 0 
0 0 0 0 0 0 0 0 0 
0 0 0 0 0 0 0 0 0 
0 0 0 0 0 0 0 0 0 
0 0 0 0 0 0 0 0 0 
0 0 0 0 0 0 0 8.75082e-12 0 
0 0 0 0 0 0 0 0 0 
0 0 0 0 0 0 0 0 0 
0 0 0 0 0 0 0 0 0 
0 0 0 0 0 0 0 0 0 
0 0 0 0 0 0 0 3.7029e-12 0 
0 0 0 0 0 0 0 0 0 
0 0 0 0 0 0 0 2.35285e-13 0 
0 0 0 0 0 0 0 0 0 
0 0 0 0 0 0 0 0 0 
0 0 0 0 0 0 0 0 4.80292e-12 
0 0 0 0 0 0 0 0 0 
0 0 0 0 0 9.36022e-12 0 2.36797e-11 0 
0 0 0 0 0 0 0 0 0 
0 0 0 0 2.71325e-11 0 3.68291e-11 0 0 
1.42865e-11 0 0 0 0 0 0 0 0 
3.0462e-11 0 0 1.68078e-13 0 0 0 0 0 
0 2.52602e-11 1.79512e-11 0 0 0 0 0 0 
0 0 0 0 0 0 0 0 0 
0 0 0 0 6.17409e-13 0 0 0 0 
0 0 0 0 0 0 5.0755e-12 0 0 
0 0 0 0 0 0 0 0 0 
0 0 0 0 0 0 0 0 0 
0 0 0 0 0 0 0 0 0 
0 0 0 0 0 0 0 0 0 
0 0 0 0 0 0 0 0 0 
0 0 1.65457e-12 0 0 0 0 0 0 
0 0 0 0 0 0 0 0 0 
0 0 0 0 0 0 0 0 0 
0 0 0 0 0 0 0 0 0 
0 0 0 0 0 0 0 0 0 
7.20881e-13 0 0 0 0 0 0 0 0 
0 0 0 0 0 0 0 0 0 
0 0 0 0 0 0 0 0 0 
0 0 0 0 0 0 0 0 0 
0 0 0 0 0 0 0 0 0 
0 0 0 0 0 0 0 0 0 
0 0 0 0 0 0 0 0 0 
0 0 1.47014e-11 2.16897e-11 0 0 0 4.97364e-12 0 
0 0 0 0 0 0 0 0 0 
0 3.09064e-11 0 5.78462e-12 0 0 0 0 0 
0 0 6.86911e-12 0 0 0 0 0 0 
0 0 0 0 0 0 0 0 0 
0 0 0 0 0 0 0 1.46111e-11 0 
0 0 0 0 0 0 0 0 0 
0 3.32247e-11 0 0 0 0 0 0 0 
7.90838e-12 0 0 0 0 0 0 0 0 
0 0 0 0 0 0 0 0 0 
4.69323e-12 0 0 0 0 7.91124e-12 0 1.87129e-12 0 
0 0 0 0 0 0 9.23334e-12 0 0 
0 0 0 0 0 0 0 0 0 
0 0 0 0 0 0 0 0 0 
0 0 0 0 0 0 0 0 0 
0 0 0 0 0 0 0 0 0 
0 0 0 0 0 0 0 0 0 
0 0 0 0 0 0 0 0 1.5487e-11 
0 0 0 1.21934e-11 0 0 0 0 0 
0 0 0 0 0 0 0 0 0 
3.02528e-12 0 0 0 0 0 0 0 0 
0 0 0 0 0 0 0 0 0 
0 0 0 0 0 0 0 0 0 
0 0 0 0 0 0 0 3.84614e-12 0 
0 0 0 0 0 0 0 0 0 
0 0 0 0 0 0 0 0 0 
0 0 0 0 0 0 0 0 0 
0 0 0 0 0 0 0 0 0 
0 0 0 0 0 0 0 0 0 
0 0 6.41746e-12 1.1988e-11 0 1.60745e-11 0 0 0 
3.81564e-11 0 3.70725e-11 0 0 0 0 0 0 
2.23964e-11 0 0 0 0 0 0 0 0 
0 1.97228e-11 0 0 0 0 0 5.76378e-11 0 
0 0 0 0 0 0 0 0 0 
0 0 0 0 0 0 0 0 0 
4.19488e-11 0 0 6.02764e-12 0 1.56808e-11 0 0 0 
0 0 0 0 0 0 8.36976e-12 0 0 
0 0 0 0 0 0 0 0 0 
3.294e-11 0 0 0 0 0 0 0 0 
0 0 0 0 0 0 0 0 0 
0 0 0 8.05704e-12 0 0 9.02184e-12 0 0 
0 0 0 0 0 0 0 0 0 
0 0 0 0 0 0 0 0 0 
0 0 0 0 0 0 0 0 0 
0 0 0 0 0 0 0 0 0 
0 0 0 0 0 0 0 0 0 
0 0 0 0 0 0 0 0 0 
9.52747e-12 0 0 0 0 0 0 0 0 
0 0 0 0 0 0 0 0 0 
0 0 0 0 0 0 0 0 0 
0 0 0 0 0 0 0 0 0 
0 0 0 0 0 0 0 0 0 
0 0 0 0 0 0 0 0 0 
0 0 0 0 0 0 0 0 9.77135e-14 
0 0 0 0 0 0 3.01856e-12 0 0 
2.9259e-11 0 3.5896e-11 0 0 0 0 0 0 
0 0 0 0 0 0 0 0 0 
0 0 0 0 1.99935e-11 0 2.64696e-11 1.2546e-12 0 
2.30934e-11 2.60568e-11 0 0 0 4.78694e-11 0 0 0 
0 0 0 0 0 0 0 0 0 
0 0 0 2.27363e-11 7.36761e-11 0 0 2.73071e-11 0 
5.63957e-11 0 0 0 0 0 0 0 0 
0 2.8442e-11 0 4.49261e-11 0 0 0 0 0 
0 0 0 0 1.41892e-11 0 0 0 2.12139e-11 
0 0 0 0 0 0 0 0 0 
0 0 0 0 0 0 0 0 0 
0 0 0 5.58583e-11 1.79869e-11 0 0 0 0 
0 0 0 0 1.01094e-11 0 0 0 0 
0 1.92975e-11 0 0 0 0 0 0 0 
0 0 1.04026e-11 0 0 0 0 0 0 
0 0 0 0 0 0 0 0 0 
1.7286e-12 0 0 0 0 0 0 2.2678e-12 0 
0 0 0 0 0 0 0 0 0 
0 0 0 0 0 2.20866e-12 0 0 2.69514e-11 
0 0 0 0 0 0 0 0 0 
0 0 0 0 0 0 0 0 0 
0 0 0 0 0 0 0 0 0 
0 0 0 0 4.96641e-13 0 0 0 0 
0 0 0 0 0 0 0 0 0 
0 0 0 0 0 0 0 0 0 
0 0 0 0 0 0 0 0 0 
0 0 0 0 0 0 0 0 0 
0 0 0 0 0 0 0 0 0 
2.48534e-11 0 0 0 5.4569e-11 0 0 0 0 
0 0 0 0 0 0 0 0 0 
0 0 1.27127e-11 1.66414e-11 0 0 0 0 0 
0 0 0 0 1.6912e-11 0 0 0 0 
0 0 0 0 0 7.4361e-11 0 0 8.69124e-12 
2.80466e-11 0 5.91034e-11 1.03591e-10 0 0 0 0 0 
0 0 0 0 0 0 0 0 0 
4.16049e-11 4.55223e-11 0 0 6.02883e-11 0 0 0 0 
3.87379e-11 0 0 0 0 0 0 0 0 
0 0 0 0 2.41486e-11 0 1.37573e-12 0 1.00557e-12 
0 9.54698e-12 0 0 0 0 0 0 0 
0 0 0 3.36405e-12 4.82598e-11 0 0 1.18419e-11 0 
7.03714e-12 0 0 1.94051e-11 0 0 0 0 0 
0 0 0 0 1.24942e-12 0 0 0 0 
0 1.43386e-11 9.56339e-13 0 0 0 0 0 0 
0 2.49319e-11 0 0 0 0 0 0 5.80978e-12 
0 0 0 0 0 0 0 0 0 
0 0 0 0 0 0 0 3.28349e-12 0 
3.97097e-12 1.31128e-11 0 0 0 0 0 0 0 
0 0 0 0 8.80813e-12 0 0 0 0 
0 0 0 0 0 0 0 0 0 
0 0 0 0 0 0 0 0 0 
0 0 0 0 0 0 0 0 0 
0 0 0 0 0 0 0 0 0 
0 0 0 0 0 0 0 0 0 
0 0 0 0 0 0 0 0 0 
0 0 0 0 0 1.45947e-11 0 0 0 
0 5.43944e-12 0 0 8.19334e-12 0 0 0 0 
0 0 4.86333e-11 0 0 0 0 4.33907e-11 0 
0 0 0 0 0 1.6209e-11 0 0 0 
0 0 0 0 8.69334e-11 0 2.07572e-10 0 0 
0 0 4.75553e-11 3.47603e-11 1.58572e-11 0 0 3.28366e-11 0 
0 0 0 0 0 7.52165e-13 2.22042e-12 0 8.29751e-11 
0 0 0 0 0 0 7.79915e-11 0 0 
0 0 0 0 7.58968e-11 0 0 6.65419e-11 0 
0 0 0 0 0 2.56677e-11 0 0 0 
2.44875e-11 0 0 0 0 0 1.27683e-11 0 0 
0 0 0 0 0 0 0 0 6.15923e-11 
0 0 0 0 9.0229e-11 0 1.32187e-10 0 0 
0 3.53817e-11 0 0 0 0 2.87055e-11 0 0 
7.31122e-11 0 4.9745e-11 0 0 1.47067e-11 0 0 0 
0 0 0 0 1.97491e-11 0 0 3.90126e-11 0 
0 0 2.48384e-11 2.49672e-11 0 0 0 0 0 
0 0 0 0 0 0 0 0 0 
0 0 0 0 0 0 0 0 0 
0 0 0 0 0 0 0 0 0 
0 0 2.2108e-11 1.46078e-12 0 0 0 3.58857e-11 0 
0 0 0 0 0 0 0 0 0 
0 0 0 0 0 0 0 0 0 
0 0 0 0 0 0 0 0 0 
0 0 0 0 0 0 0 0 0 
0 0 0 0 0 0 0 0 0 
0 0 0 0 0 0 0 0 0 
0 0 0 0 0 0 0 3.28335e-11 0 
0 0 0 0 9.17772e-12 0 0 0 0 
1.04613e-12 0 0 0 0 4.48368e-11 0 0 0 
0 2.34294e-10 0 0 7.06172e-11 0 0 0 0 
1.55213e-12 0 0 1.51684e-11 0 0 1.28217e-12 0 0 
0 0 0 1.92043e-10 2.43303e-08 0 0 0 4.97028e-11 
0 2.75013e-11 0 0 0 0 0 0 0 
0 0 0 0 2.43505e-10 3.45999e-12 0 0 3.31547e-11 
0 1.18745e-11 0 2.38458e-11 0 0 0 0 6.91199e-11 
0 6.73421e-13 1.84483e-12 0 0 3.26161e-12 0 0 0 
0 0 0 0 0 0 0 0 3.94259e-11 
0 0 2.31329e-11 5.42707e-13 1.86914e-11 0 0 0 0 
0 0 5.92564e-11 0 0 0 0 0 0 
0 0 6.0408e-11 6.52072e-11 0 0 3.12846e-13 0 0 
1.35214e-10 1.54588e-11 0 0 0 8.79672e-11 4.72895e-11 0 0 
0 0 0 0 0 0 0 0 0 
0 1.62807e-11 0 0 0 0 2.04618e-12 0 0 
1.02476e-11 0 0 0 8.49442e-12 2.1617e-11 0 0 0 
0 0 0 0 0 0 0 0 0 
0 0 0 0 0 0 0 9.95825e-12 0 
0 0 1.64533e-11 0 0 2.81336e-11 0 0 0 
0 0 0 7.15169e-11 0 3.15621e-11 0 0 0 
0 0 0 0 0 0 8.9242e-13 0 0 
0 0 0 0 0 0 0 0 0 
0 0 0 0 0 9.22305e-13 0 0 0 
0 0 0 0 0 0 0 0 0 
0 0 0 0 0 0 0 0 0 
0 0 0 0 0 0 0 0 0 
0 0 0 0 1.41044e-11 1.15935e-11 0 0 6.32999e-11 
0 0 0 3.93082e-11 2.68642e-12 2.62575e-11 0 0 0 
0 0 0 3.96251e-13 0 0 0 0 0 
0 4.1318e-11 0 0 0 2.44364e-11 6.79172e-11 0 5.75627e-12 
0 4.7932e-12 0 0 9.7226e-12 2.45214e-11 4.65823e-11 0 0 
0 0 0 1.77835e-10 0 0 4.9723e-11 0 2.92637e-11 
0 0 0 0 0 0 0 2.13407e-11 5.06734e-11 
3.09688e-11 1.34836e-10 2.54731e-08 0 0 0 0 0 0 
1.92661e-11 0 0 0 2.64831e-08 0 0 1.26058e-10 0 
0 8.59529e-12 5.56218e-11 0 2.65753e-11 1.02584e-10 1.42402e-10 0 0 
0 0 0 5.85557e-11 2.71398e-11 1.41287e-11 0 2.09601e-12 0 
0 0 0 1.77592e-11 0 0 0 0 0 
1.53044e-11 0 1.10057e-10 5.61e-11 0 0 0 0 0 
0 0 0 2.52258e-08 0 0 0 2.5361e-11 0 
8.76641e-11 0 0 1.77722e-10 5.63788e-11 0 0 6.37471e-11 8.35117e-11 
0 0 2.72632e-11 0 0 3.43098e-11 0 0 0 
0 5.00794e-11 0 0 1.98685e-11 0 0 0 0 
0 0 0 0 0 0 0 2.99215e-11 0 
0 0 0 0 0 0 0 0 0 
0 0 0 0 0 0 4.35847e-12 0 0 
0 0 0 0 0 0 0 0 9.30433e-12 
0 0 0 0 0 0 0 0 0 
0 0 6.38671e-12 0 0 0 0 0 0 
0 2.38144e-12 0 0 0 0 0 0 0 
0 0 0 0 0 0 0 0 0 
0 0 0 0 0 0 0 0 0 
0 0 0 0 0 0 0 1.8481e-12 0 
0 0 0 0 0 0 0 0 0 
1.72163e-11 0 0 0 0 7.95515e-11 8.80782e-11 0 0 
0 2.03958e-11 0 0 0 2.02657e-12 0 0 0 
0 0 0 0 0 1.99904e-11 0 0 0 
0 0 0 0 0 0 3.82101e-11 0 0 
0 0 0 0 2.4342e-11 0 7.22443e-11 8.1476e-11 0 
0 0 1.06532e-10 7.45888e-11 7.36929e-12 0 0 0 0 
0 0 0 0 4.8916e-12 4.21423e-11 0 0 0 
1.29585e-10 0 0 0 1.46843e-10 0 0 0 0 
2.49659e-11 0 1.73708e-10 0 0 0 0 0 5.73402e-11 
2.58328e-11 0 7.0588e-11 2.57368e-11 0 0 2.46524e-08 0 0 
3.31871e-11 0 0 0 0 9.2624e-12 0 0 0 
0 0 4.04555e-11 0 0 8.00596e-11 6.82343e-11 0 0 
9.18838e-11 7.82425e-11 2.3628e-11 0 7.41278e-11 0 0 0 1.36123e-10 
0 0 0 3.17448e-11 0 1.76979e-10 0 0 0 
1.00905e-10 0 0 0 5.24594e-11 6.12779e-11 0 1.42655e-11 0 
0 1.2538e-12 0 3.00723e-11 0 4.22102e-13 0 0 0 
0 0 0 0 0 2.96671e-11 0 7.945e-11 0 
0 0 6.09068e-11 0 8.43741e-11 0 0 0 0 
0 0 0 0 0 0 0 0 0 
0 7.98874e-12 0 0 0 0 0 0 0 
0 0 1.89299e-11 9.14968e-11 1.83243e-11 0 0 0 0 
0 5.18609e-11 0 3.65253e-11 3.74668e-11 0 0 0 1.15816e-11 
0 2.69436e-11 0 0 0 0 0 0 0 
0 0 0 0 0 0 0 0 0 
0 0 0 0 0 0 0 0 0 
0 0 0 0 0 0 0 0 0 
0 0 0 0 0 0 0 0 0 
0 0 0 0 0 0 0 0 0 
0 0 0 5.56963e-11 0 0 0 0 0 
0 0 0 4.63445e-11 5.11065e-11 0 0 0 0 
0 2.63483e-08 0 2.38911e-10 0 0 4.60489e-12 2.54614e-12 0 
0 1.25604e-10 8.89471e-12 0 0 0 0 0 3.59996e-11 
3.3343e-11 0 0 0 0 3.00863e-11 7.03034e-11 0 0 
0 0 0 0 1.30799e-11 0 0 0 0 
0 0 0 0 0 0 5.44683e-11 0 0 
0 0 9.74229e-11 0 3.3846e-11 0 0 0 0 
0 0 0 3.14576e-12 0 0 5.14717e-11 1.16071e-11 0 
0 1.25872e-10 0 0 0 0 3.63513e-10 0 0 
0 0 0 0 0 0 0 2.19532e-11 0 
0 0 0 0 0 2.10837e-10 0 0 5.45166e-11 
0 0 0 4.12234e-11 5.27845e-11 3.33502e-11 0 0 0 
1.19951e-10 0 0 0 0 2.92126e-10 2.73456e-08 2.61032e-10 0 
0 0 1.21212e-10 0 0 9.17209e-11 0 0 0 
1.08663e-11 0 0 0 0 7.37666e-12 0 0 0 
0 5.80608e-11 1.18983e-10 0 0 0 0 4.23752e-11 7.35327e-11 
0 0 0 0 0 0 0 1.2795e-11 0 
0 0 0 0 8.52494e-12 0 0 0 0 
0 0 0 0 2.85132e-11 0 0 0 0 
0 0 7.46206e-11 0 0 2.32035e-10 0 0 0 
0 0 0 5.87454e-11 0 0 0 0 0 
0 0 7.47247e-13 0 0 1.84263e-12 0 0 0 
0 0 0 0 0 0 0 0 0 
0 0 0 0 0 0 0 0 0 
0 0 0 0 0 0 0 0 0 
0 0 0 0 0 0 1.15354e-12 0 0 
0 0 9.35979e-13 0 0 0 0 3.90695e-11 0 
0 6.53799e-11 0 0 2.47401e-08 0 3.8931e-11 0 0 
3.75267e-11 0 3.00556e-11 0 0 0 0 0 0 
3.53085e-10 0 0 0 0 1.74333e-11 1.4333e-10 0 0 
1.47714e-10 0 0 0 8.77477e-11 0 0 0 0 
1.0726e-12 0 4.38302e-11 1.78524e-11 0 0 4.50102e-11 0 0 
0 0 0 2.04815e-11 0 2.13401e-11 0 2.24388e-11 0 
0 0 0 0 0 2.45426e-10 2.05037e-10 0 0 
0 3.71872e-11 7.15576e-11 1.08713e-10 0 0 1.63281e-10 0 0 
3.60815e-11 0 0 6.7471e-12 0 0 1.04378e-10 9.42035e-11 0 
1.35732e-10 0 1.61389e-10 0 0 1.00879e-10 0 5.7254e-11 0 
0 0 1.29125e-11 0 0 0 0 0 0 
4.66992e-11 0 0 2.44615e-08 1.59665e-10 0 1.02069e-10 0 0 
0 0 0 0 0 1.10509e-10 0 0 1.52469e-10 
3.46633e-12 4.2771e-12 0 0 0 1.86053e-10 0 0 1.92645e-10 
0 0 0 0 0 0 1.60223e-10 0 4.00421e-11 
0 0 0 0 0 0 0 0 1.27679e-10 
0 0 0 6.0534e-11 1.54926e-10 0 0 0 0 
0 0 0 0 0 0 0 0 0 
0 0 0 0 0 0 1.28471e-12 0 7.06354e-12 
0 0 0 0 0 0 1.20569e-10 0 8.45097e-11 
0 0 0 2.49551e-08 0 0 0 0 6.34503e-11 
0 0 3.47753e-11 0 1.49009e-11 0 1.20842e-11 0 0 
0 1.39858e-11 0 0 0 0 0 0 0 
0 0 0 0 0 0 0 0 0 
3.65563e-13 0 0 0 0 0 0 0 0 
0 0 0 0 0 0 0 0 0 
0 0 0 0 0 0 0 0 0 
0 0 0 0 0 0 0 0 5.37416e-12 
0 1.82787e-10 8.11127e-11 1.18759e-10 3.0645e-11 0 0 0 0 
0 0 0 0 0 0 0 0 0 
2.23251e-10 0 0 1.47989e-11 0 1.19329e-10 1.54682e-10 3.56826e-11 2.89531e-12 
0 0 0 0 0 0 1.01395e-15 0 0 
2.606e-11 0 0 0 0 3.75391e-11 0 6.50256e-11 0 
0 0 0 0 2.55798e-11 0 0 1.97339e-11 0 
6.39249e-11 0 0 0 1.52142e-10 0 4.73751e-11 0 0 
2.83723e-10 0 0 2.96412e-10 0 0 0 0 0 
0 0 0 3.3558e-11 0 6.21853e-11 0 0 2.30746e-10 
0 0 0 0 5.44316e-11 2.10145e-13 0 0 0 
0 0 0 0 0 0 0 0 1.87283e-11 
0 0 2.24321e-12 0 9.22785e-11 0 0 4.34167e-11 0 
7.20786e-11 0 0 3.38648e-11 0 0 0 0 1.02258e-10 
0 0 0 0 1.5927e-10 2.72091e-10 2.71347e-08 0 0 
0 1.16674e-11 0 0 0 7.30971e-11 0 0 0 
0 2.27744e-12 0 0 6.70032e-11 0 1.573e-10 7.86934e-11 0 
0 0 0 0 0 5.73117e-11 0 0 0 
0 0 0 0 0 0 0 0 0 
0 0 0 0 0 0 1.32448e-11 0 0 
0 0 0 2.84958e-11 5.57023e-11 0 0 1.66954e-11 2.87618e-11 
0 0 0 0 0 6.1217e-12 0 6.98492e-11 5.04837e-11 
0 0 0 0 0 1.16192e-11 0 0 0 
0 1.33909e-11 0 0 0 0 0 0 0 
0 0 0 0 0 0 0 0 0 
0 0 0 0 0 0 0 0 0 
0 0 0 0 0 0 0 0 0 
0 0 0 0 0 0 0 0 0 
0 2.35471e-13 0 0 0 0 7.43244e-11 2.13143e-11 0 
1.16506e-10 1.5555e-11 2.64567e-11 0 0 0 2.16235e-12 0 1.8486e-10 
0 0 2.84408e-11 0 0 2.67287e-10 0 0 2.11172e-10 
0 0 0 0 2.68308e-08 0 0 4.29831e-11 0 
3.87225e-11 6.74028e-12 0 0 6.73016e-11 0 0 0 0 
0 0 0 0 0 0 0 0 0 
0 0 0 0 0 6.57013e-11 6.2679e-11 2.24972e-11 0 
0 0 0 0 0 0 0 0 0 
0 0 0 0 0 0 0 0 1.20033e-10 
0 1.94676e-11 1.82023e-10 1.13353e-10 1.04428e-12 0 2.34093e-11 0 0 
0 0 0 0 0 1.31246e-11 0 0 1.00541e-11 
0 0 0 8.73826e-11 0 0 0 0 3.39643e-11 
2.02063e-11 0 1.44877e-10 0 0 9.81764e-12 0 0 0 
0 7.63094e-11 0 0 0 0 0 1.24342e-10 0 
0 0 2.16498e-12 2.24279e-10 0 0 0 0 0 
0 0 0 0 0 5.357e-11 0 0 0 
0 0 0 3.59084e-11 0 0 0 0 0 
0 0 0 3.80096e-11 5.05852e-11 1.03845e-10 8.08306e-11 1.96772e-13 0 
0 0 0 0 0 0 0 0 0 
0 0 0 2.9046e-11 0 0 0 0 0 
0 0 0 2.74028e-11 0 1.31056e-10 5.10499e-11 0 0 
0 1.91368e-10 0 0 0 0 0 0 1.26164e-12 
0 0 0 0 3.28566e-11 0 0 0 0 
0 0 0 0 0 0 0 0 0 
0 0 0 0 0 0 0 0 0 
0 0 0 0 0 0 0 0 0 
0 4.78387e-12 0 0 0 0 0 0 0 
0 0 0 1.43533e-12 4.60416e-13 0 3.97479e-12 0 0 
0 0 4.79855e-11 0 0 5.03503e-11 0 2.44356e-11 1.25586e-11 
0 0 0 0 0 0 0 0 0 
0 1.46574e-10 0 0 0 0 0 0 0 
0 6.52028e-11 2.59151e-10 0 0 9.6096e-11 0 0 0 
4.26429e-11 0 0 1.01438e-11 0 0 0 0 1.45418e-11 
0 0 0 0 0 0 2.77763e-11 0 6.90772e-11 
0 0 0 7.54736e-11 7.30093e-11 0 0 0 7.49324e-12 
1.74707e-10 0 0 3.03417e-08 0 0 0 3.48479e-08 0 
0 0 0 1.65548e-10 0 1.0715e-10 0 7.26448e-11 1.84792e-10 
1.76497e-11 2.50236e-11 8.92244e-11 0 0 0 0 5.70938e-11 0 
5.10797e-11 0 0 0 0 0 1.63775e-11 0 0 
0 0 0 0 0 0 0 0 1.16717e-12 
2.47857e-11 0 0 5.79973e-12 7.84173e-11 0 0 0 5.85221e-11 
0 0 0 9.71506e-12 0 0 0 6.41914e-11 0 
8.42121e-11 0 0 0 0 0 0 8.72791e-11 3.3257e-11 
0 0 0 0 0 0 1.57793e-10 0 0 
0 0 0 0 0 0 0 0 0 
0 0 0 0 0 7.28521e-11 6.88344e-11 0 0 
0 0 0 0 1.20466e-11 0 0 0 0 
0 3.28634e-11 0 6.23108e-11 0 0 0 0 0 
0 0 9.47389e-11 0 0 0 0 0 0 
0 0 4.29582e-11 6.7915e-11 2.07643e-11 1.0231e-10 0 4.8996e-11 1.38862e-10 
0 0 0 0 0 0 0 0 0 
0 0 0 0 0 0 0 0 0 
0 0 0 0 0 0 0 0 0 
0 0 0 0 0 0 0 0 0 
0 0 0 0 0 0 0 0 0 
0 0 0 0 0 0 0 0 0 
0 4.35416e-11 0 9.33238e-11 0 6.8723e-11 0 0 0 
0 0 0 1.12523e-10 4.14842e-11 3.89544e-11 0 9.63977e-11 0 
0 0 0 0 0 0 0 0 0 
0 0 0 0 0 8.98719e-12 0 0 0 
0 0 0 0 0 0 1.09325e-10 0 0 
0 0 8.32264e-11 0 0 0 1.54622e-11 0 0 
0 0 0 0 0 8.23892e-11 0 1.84687e-10 0 
0 0 2.53063e-10 0 0 0 0 0 0 
0 0 0 0 2.63199e-08 0 0 0 0 
0 0 0 0 0 0 0 0 0 
0 0 0 0 0 0 0 0 1.74608e-11 
0 0 0 0 2.4623e-11 0 0 0 5.8691e-11 
0 5.05145e-13 0 0 1.37417e-10 0 0 0 0 
5.56433e-11 0 0 0 0 0 1.07032e-10 0 7.50793e-11 
5.84395e-11 9.17591e-11 0 0 0 0 1.15621e-10 0 0 
1.08226e-10 2.49735e-08 0 0 0 1.1971e-10 4.54832e-11 0 0 
0 1.89045e-10 0 0 0 0 2.83923e-08 0 0 
6.54822e-11 0 0 2.56191e-13 0 0 0 0 0 
0 0 0 0 0 0 0 0 0 
0 4.45689e-11 0 0 0 1.07219e-10 6.20844e-11 0 0 
1.40903e-11 0 0 0 0 0 0 0 0 
0 0 0 0 0 0 0 0 7.84465e-11 
4.34155e-11 0 0 0 0 0 0 0 0 
0 0 0 0 0 0 0 0 0 
0 0 1.95161e-12 0 0 0 0 0 0 
0 0 0 0 0 0 0 0 0 
0 0 0 0 0 0 0 0 0 
0 0 0 0 0 0 2.98581e-11 0 0 
0 5.8087e-11 0 0 0 0 0 1.04245e-10 0 
3.97572e-10 0 0 0 3.4342e-11 7.3775e-11 0 0 0 
0 3.85804e-08 3.87994e-08 0 0 0 2.72024e-11 0 0 
0 0 6.48217e-11 1.88882e-11 0 0 4.57101e-12 0 0 
0 0 8.52432e-11 0 0 3.68708e-11 0 0 0 
0 0 2.04385e-11 0 0 0 0 0 0 
0 1.60424e-11 0 0 0 0 0 9.63616e-13 0 
0 0 0 0 3.34119e-08 0 0 2.10596e-10 0 
2.64133e-10 0 2.66089e-10 0 0 1.19338e-11 0 0 0 
0 0 0 0 0 4.16912e-11 0 0 0 
0 0 0 0 0 0 0 0 0 
0 8.34178e-11 0 0 0 0 0 0 0 
0 7.58474e-12 0 0 0 0 0 0 0 
0 0 0 1.15412e-10 0 0 0 1.6996e-10 0 
0 1.38943e-11 0 0 0 0 0 0 0 
0 8.32626e-11 8.2836e-12 0 9.97751e-11 4.91158e-11 0 2.11392e-10 0 
0 0 0 0 9.34045e-11 0 0 0 2.67005e-11 
0 0 0 0 0 0 0 0 0 
0 0 0 0 1.39984e-11 2.54254e-11 0 0 2.70381e-11 
0 0 0 0 2.61572e-10 0 0 1.34533e-10 0 
4.82071e-11 1.20945e-10 0 0 0 1.06275e-10 2.30966e-10 0 0 
0 0 0 0 0 0 0 0 1.38837e-11 
0 0 0 0 1.09999e-11 1.05033e-11 0 0 0 
0 0 0 0 0 0 0 0 0 
0 0 0 0 0 0 0 0 0 
0 0 0 0 0 0 0 0 0 
0 0 0 0 0 0 0 0 0 
0 0 0 0 1.7099e-11 7.32737e-14 0 0 0 
0 0 6.06804e-11 0 0 0 0 0 0 
0 9.07769e-12 0 0 5.38345e-11 0 8.62477e-11 0 0 
0 0 2.28549e-10 0 0 8.36785e-11 1.09365e-10 0 0 
0 0 3.12498e-11 0 0 0 0 0 0 
6.73803e-12 0 0 8.01865e-11 0 1.20779e-10 0 0 0 
0 0 0 0 0 0 0 0 0 
0 0 0 0 0 0 1.28823e-11 0 2.10481e-11 
0 4.90174e-10 0 0 0 5.26262e-11 0 3.33995e-11 0 
5.86909e-11 0 0 0 0 0 8.35023e-11 0 0 
0 9.83357e-11 0 0 5.2118e-11 0 0 3.71262e-11 0 
0 0 0 0 0 2.85982e-11 0 0 0 
0 0 0 0 1.04869e-11 0 0 0 0 
0 0 0 0 0 0 0 3.1479e-12 0 
0 2.83676e-11 6.13589e-11 0 0 0 0 0 0 
4.80349e-11 0 0 9.19876e-11 0 0 0 0 0 
0 0 0 0 0 2.13737e-11 0 5.07358e-11 0 
5.44343e-11 0 0 2.23311e-10 0 0 0 4.3275e-11 0 
2.91706e-12 0 0 0 0 0 0 0 0 
0 0 0 0 0 0 0 0 0 
1.83376e-10 1.76695e-10 2.68671e-08 0 0 1.96478e-10 0 1.35193e-12 0 
0 0 4.33112e-11 0 0 2.28775e-11 0 0 0 
0 0 0 1.33867e-11 0 0 0 0 0 
0 0 0 0 0 0 0 0 0 
0 0 0 0 0 0 0 0 0 
0 0 0 0 0 0 0 0 0 
0 0 0 0 0 0 0 0 0 
0 0 0 0 0 0 0 0 0 
0 0 0 0 0 0 0 6.19481e-11 0 
0 3.41084e-11 0 0 0 2.68553e-08 0 3.82973e-10 1.07308e-10 
0 0 0 0 2.84304e-10 2.94346e-10 0 0 0 
5.03628e-11 1.91484e-10 0 0 1.08383e-10 0 0 0 0 
0 0 0 0 0 0 0 0 0 
0 0 0 3.23486e-11 9.81787e-11 9.39714e-11 0 3.02939e-10 0 
0 1.6928e-11 0 0 0 0 5.25462e-11 0 0 
0 0 6.70426e-12 1.02567e-10 1.65675e-11 0 3.84472e-11 0 0 
0 0 4.92419e-11 0 1.05141e-10 9.72003e-12 1.54262e-11 0 3.41282e-13 
9.65398e-11 0 5.08088e-12 1.76467e-11 0 0 0 5.76247e-11 0 
0 0 0 0 0 0 0 0 0 
0 0 0 0 3.04007e-11 0 4.19452e-11 0 0 
0 0 0 0 0 0 1.35412e-12 0 0 
0 0 0 0 0 0 4.03858e-11 0 0 
0 0 1.3468e-10 0 0 0 0 8.88065e-12 0 
0 0 0 0 0 4.99053e-11 0 0 1.50778e-11 
1.37717e-10 0 0 0 0 0 0 0 1.90308e-10 
2.79344e-10 0 0 0 9.94798e-11 0 0 2.27389e-11 0 
1.23979e-11 0 0 0 0 0 0 0 0 
0 0 0 0 0 0 0 0 0 
9.88313e-11 8.69888e-11 6.6561e-11 0 0 0 0 0 0 
0 0 1.98803e-10 3.17468e-11 3.86428e-11 1.14598e-10 0 3.11606e-08 0 
0 0 0 0 0 0 0 0 0 
0 0 0 0 0 0 0 0 0 
0 0 0 0 0 0 0 0 0 
0 0 0 0 0 0 0 0 0 
0 0 0 0 0 0 0 0 0 
0 0 0 0 0 0 0 0 0 
0 0 0 0 0 0 0 2.429e-10 4.44906e-11 