# vtk DataFile Version 5.1
vtk output
ASCII
DATASET STRUCTURED_POINTS
DIMENSIONS 250 250 1
SPACING 1 1 1
ORIGIN 0 0 0
POINT_DATA 62500
FIELD FieldData 6
feature_1 1 62500 float
0 0 0 0 0 0 0 0 0 
0 0 0 0 0 0 0 0 0 
0 0 0 0 0 0 0 0 0 
0 0 0 0 0 0 0 0 0 
0 0 0 0 0 0 0 0 0 
0 0 0 0 0 0 0 0 0 
0 0 0 0 0 0 0 0 0 
0 0 0 0 0 0 0 0 0 
0 0 0 0 0 0 0 0 0 
0 0 0 0 0 0 0 0 0 
0 0 0 0 0 0 0 0 0 
0 0 0 0 0 0 0 0 0 
0 0 0 0 0 0 0 0 0 
0 0 0 0 0 0 0 0 0 
0 0 0 0 0 0 0 0 0 
0 0 0 0 0 0 0 0 0 
0 0 0 0 0 0 0 0 0 
0 0 0 0 0 0 0 0 0 
0 0 0 0 5.52282e-13 0 0 0 0 
0 0 0 0 0 0 0 0 0 
0 0 0 0 0 0 0 0 0 
0 0 0 0 0 0 0 0 0 
0 0 0 0 0 0 0 0 0 
0 0 0 0 0 0 0 0 0 
0 0 0 0 0 0 0 0 0 
0 0 0 0 0 0 0 0 0 
0 0 0 0 0 0 0 0 0 
0 0 0 0 0 0 0 0 0 
0 0 0 0 0 0 0 0 0 
0 0 0 0 0 0 0 0 0 
0 0 0 0 0 0 0 0 0 
0 0 0 0 0 0 0 0 0 
0 0 0 0 0 0 0 0 0 
0 0 0 0 0 0 0 0 0 
0 0 0 0 0 0 0 0 0 
0 0 0 0 0 0 0 0 0 
0 0 0 0 0 0 0 0 0 
0 0 0 0 0 0 0 0 0 
0 0 0 0 0 0 0 0 0 
0 0 0 0 0 0 0 0 0 
0 0 0 0 0 0 0 0 0 
0 0 0 0 0 0 0 0 0 
0 0 0 0 0 0 0 0 0 
0 0 0 0 0 0 0 0 0 
0 0 0 0 0 0 0 0 0 
0 0 0 0 0 0 0 0 0 
0 0 0 0 0 0 0 0 0 
0 0 0 0 0 0 0 0 0 
0 0 0 0 0 0 0 0 0 
0 0 0 0 0 0 0 0 0 
0 0 0 0 0 0 0 0 0 
0 0 0 0 0 0 0 0 0 
0 0 0 0 0 0 0 0 0 
0 0 0 0 0 0 0 0 0 
0 0 0 0 0 0 0 0 0 
0 0 0 0 0 0 0 0 0 
0 0 0 0 0 0 0 0 0 
0 0 0 0 0 0 0 0 0 
0 0 0 0 0 0 0 0 0 
0 0 0 0 0 0 0 0 0 
0 0 0 0 0 0 0 0 0 
0 0 0 0 0 0 0 0 0 
0 0 0 0 0 0 0 0 0 
0 0 0 0 0 0 0 0 0 
0 0 0 0 0 0 0 0 0 
0 0 0 0 0 0 0 0 0 
0 0 0 0 0 0 0 0 0 
0 0 0 0 0 0 0 0 0 
0 0 0 0 0 0 0 0 0 
0 0 0 0 0 0 0 0 0 
0 0 0 0 0 0 0 0 0 
0 0 0 0 0 0 0 0 0 
0 0 0 0 0 0 0 0 0 
0 0 0 0 0 0 0 0 0 
0 0 0 0 0 0 0 0 0 
0 0 0 0 0 0 0 0 0 
0 0 0 0 0 0 0 0 0 
0 0 0 0 0 0 0 0 0 
0 0 0 0 0 0 0 0 0 
0 0 0 0 0 0 0 0 0 
0 0 0 0 0 0 0 0 0 
0 0 0 0 0 0 0 0 0 
7.91205e-14 0 0 0 0 0 0 0 0 
0 0 0 0 0 0 0 0 0 
0 0 0 0 0 0 0 0 0 
0 0 0 0 0 0 0 0 0 
0 0 0 0 0 0 0 0 0 
0 0 0 0 0 0 0 0 0 
0 0 0 0 0 0 0 0 0 
0 0 0 0 0 0 0 0 0 
0 0 0 0 0 0 0 0 0 
0 0 0 0 0 0 0 0 0 
0 0 0 0 0 0 0 0 0 
0 0 0 0 0 0 0 0 0 
0 0 0 0 0 0 0 0 0 
0 0 0 0 0 0 0 0 0 
0 0 0 0 0 0 0 0 0 
0 0 0 0 0 0 0 0 0 
0 0 0 0 0 0 0 0 0 
0 0 0 0 0 0 0 0 0 
5.57606e-13 0 0 0 0 0 0 0 0 
0 0 0 0 0 0 0 0 0 
0 0 0 0 0 0 0 0 0 
0 0 0 0 0 0 0 0 0 
0 0 0 0 0 0 0 0 0 
0 0 0 0 0 0 0 0 0 
0 0 0 0 0 0 0 0 0 
0 0 0 0 0 0 0 0 0 
0 0 9.45953e-14 0 0 0 0 0 0 
0 0 0 0 0 0 0 0 0 
0 0 0 0 0 0 0 0 0 
0 0 0 0 0 0 0 0 0 
0 0 0 0 0 0 0 0 0 
0 0 0 0 0 0 0 0 0 
0 0 0 0 0 0 0 0 0 
0 0 0 0 0 0 0 0 0 
0 0 0 0 0 0 0 0 0 
0 0 0 0 0 0 0 0 0 
0 0 0 0 0 0 0 0 0 
0 0 0 0 0 0 0 0 0 
0 0 0 0 0 0 0 7.36572e-13 0 
0 0 0 0 0 0 0 0 0 
0 0 0 0 0 0 0 0 0 
0 0 0 0 0 0 0 0 0 
0 0 0 0 0 0 0 0 0 
0 0 0 0 0 0 0 0 0 
0 0 0 0 0 0 0 0 0 
0 0 0 0 0 0 0 0 0 
0 0 0 0 0 0 0 0 0 
0 0 0 0 0 0 0 0 0 
0 0 0 0 0 0 0 0 0 
0 0 0 0 0 0 0 0 0 
0 0 0 0 0 0 0 0 0 
0 0 0 0 0 0 0 0 0 
0 0 0 0 0 0 0 0 0 
0 0 0 0 0 0 0 0 0 
0 0 0 0 0 0 0 0 0 
0 0 0 0 0 0 0 0 0 
0 0 0 0 0 0 0 0 0 
0 0 0 0 0 0 0 0 0 
0 0 0 0 0 0 0 0 0 
0 0 2.30458e-14 0 0 0 0 0 0 
0 0 0 0 0 0 0 0 0 
0 0 0 0 0 0 0 0 0 
0 0 0 0 0 0 0 2.52196e-13 0 
0 0 0 0 0 0 0 0 0 
0 0 0 0 0 0 0 0 0 
0 0 0 0 0 0 0 0 0 
0 0 0 0 0 0 0 0 0 
0 0 0 0 0 0 0 0 0 
0 0 0 0 0 0 0 0 0 
0 0 0 0 0 0 0 0 0 
0 0 0 0 0 0 0 0 0 
0 0 0 0 0 0 0 0 0 
0 0 0 0 0 0 0 0 0 
0 0 0 0 0 0 0 0 0 
0 0 0 0 0 0 0 0 0 
0 0 0 0 0 0 0 0 0 
0 0 0 0 0 0 0 0 0 
0 0 0 0 0 0 0 0 0 
0 0 0 0 0 0 0 0 0 
0 0 0 0 0 0 0 0 0 
0 0 0 0 0 0 0 0 0 
0 0 0 0 0 0 0 0 0 
0 0 0 0 0 0 0 0 0 
0 0 0 0 0 0 0 0 0 
0 0 0 0 0 0 0 0 0 
0 0 0 0 0 0 0 0 0 
0 0 0 0 0 0 0 0 0 
0 0 0 0 0 0 0 0 0 
0 0 0 0 0 0 0 0 0 
0 0 0 0 0 0 0 0 0 
0 0 0 0 0 0 0 0 0 
0 0 0 0 0 0 0 0 0 
0 0 0 0 0 0 0 0 0 
0 0 0 0 0 0 0 0 0 
0 0 0 0 0 0 0 0 0 
0 0 0 0 0 0 0 0 0 
0 0 0 0 0 0 0 0 0 
0 0 0 0 0 0 0 0 0 
0 0 0 0 0 0 0 0 0 
0 0 0 0 0 0 0 0 0 
0 0 0 0 0 0 0 0 0 
0 0 0 0 0 0 0 0 0 
0 0 0 0 0 0 0 0 0 
0 0 0 0 0 0 0 0 0 
0 0 0 0 0 0 0 0 0 
0 0 0 0 0 0 0 0 0 
0 0 0 0 0 0 0 0 0 
0 0 0 0 0 0 0 0 0 
0 0 0 0 0 0 0 0 0 
0 0 0 0 0 0 0 0 0 
0 0 0 0 0 0 0 0 0 
0 0 0 0 0 0 0 0 0 
0 0 0 0 0 0 0 0 0 
0 0 0 0 0 0 0 0 0 
0 0 0 0 0 0 0 0 0 
0 0 0 0 0 0 0 0 0 
0 0 0 0 0 0 0 0 0 
0 0 0 0 0 0 0 0 0 
0 0 0 0 0 0 0 0 0 
0 0 0 0 0 0 0 0 0 
0 0 0 0 0 0 0 0 0 
0 0 0 0 0 0 0 0 0 
0 0 0 0 0 0 0 0 0 
0 0 0 0 0 0 0 0 0 
0 0 0 0 0 0 0 0 0 
0 0 0 0 0 0 0 0 0 
0 0 0 0 0 0 0 0 0 
0 0 0 0 0 0 0 0 0 
0 0 0 0 0 0 0 0 0 
0 0 0 0 0 0 0 0 0 
0 0 0 0 0 0 0 0 0 
0 0 0 0 0 0 0 0 0 
0 0 0 0 0 0 0 0 0 
0 0 0 0 0 0 0 0 0 
0 0 0 0 0 0 0 0 0 
0 0 0 0 0 0 0 0 0 
0 0 0 0 0 0 0 0 0 
0 0 0 0 0 0 0 0 0 
0 0 0 2.05888e-12 0 0 0 0 0 
0 0 0 0 0 0 0 0 0 
0 0 0 0 0 0 0 0 0 
0 0 0 0 0 0 0 0 0 
0 0 0 0 0 0 0 0 0 
0 0 0 0 0 0 0 0 0 
0 0 0 0 0 0 0 0 0 
0 0 0 0 0 0 0 0 0 
0 0 0 0 0 0 0 0 0 
0 0 0 0 0 0 0 0 0 
0 0 0 0 0 0 0 0 0 
0 0 0 0 0 0 0 0 0 
0 0 0 0 0 0 0 0 0 
0 0 0 0 0 0 0 0 0 
0 0 0 0 0 0 0 0 0 
0 0 0 0 0 0 0 0 0 
0 0 0 0 0 0 0 0 0 
0 0 0 0 0 0 0 0 0 
0 0 0 0 0 0 0 0 0 
0 0 0 0 0 0 0 0 0 
0 0 0 0 0 0 0 0 0 
0 0 0 0 0 0 0 0 0 
0 0 0 0 0 0 0 0 0 
0 0 0 0 0 0 0 0 0 
0 0 0 0 0 0 0 0 0 
0 0 0 0 0 0 0 0 0 
0 0 0 0 0 0 0 0 0 
0 0 0 0 0 0 0 0 0 
0 0 0 0 0 0 0 0 0 
0 0 0 0 0 0 0 0 0 
0 0 0 0 0 0 0 0 0 
0 0 0 0 0 0 0 0 0 
0 0 0 0 0 0 0 0 0 
0 0 0 0 0 0 0 0 0 
0 0 0 0 0 0 0 0 0 
0 0 0 0 0 0 0 0 0 
0 0 0 0 0 0 0 0 0 
0 0 0 0 0 0 0 0 0 
0 0 0 0 0 0 0 0 0 
0 0 0 0 0 0 0 0 0 
0 0 0 0 0 0 0 0 0 
0 0 0 0 0 0 0 0 0 
0 0 0 0 0 0 0 0 0 
0 0 0 0 0 0 0 0 0 
0 0 0 0 0 0 0 0 0 
0 0 0 0 0 0 0 0 0 
0 0 0 0 0 0 0 0 0 
0 0 0 0 0 0 0 0 0 
0 0 0 0 0 0 0 0 0 
0 0 0 0 0 0 0 0 0 
0 0 0 0 0 0 0 0 0 
0 0 0 0 0 0 0 0 0 
0 0 0 0 0 0 0 0 0 
0 0 0 0 0 0 0 0 0 
0 0 0 0 0 0 0 0 0 
0 0 0 0 0 0 0 0 0 
0 0 0 0 0 0 0 0 0 
0 0 0 0 0 0 0 0 0 
0 0 0 0 0 0 0 0 0 
0 0 0 0 0 0 0 0 0 
0 0 0 0 0 0 0 0 0 
0 0 0 0 0 0 0 0 0 
0 0 0 0 0 0 0 0 0 
0 0 0 0 0 0 0 0 0 
0 0 0 0 0 0 0 0 6.84337e-13 
0 0 0 0 0 0 0 0 0 
0 0 0 0 0 0 0 0 0 
0 0 0 0 0 0 0 0 0 
0 0 0 0 0 0 0 0 0 
0 0 0 0 0 0 0 0 0 
0 0 0 0 0 0 0 0 0 
0 0 0 0 0 0 0 0 0 
0 0 0 0 0 0 0 0 0 
0 0 0 0 0 0 0 0 0 
0 0 0 0 0 0 0 0 0 
0 0 0 0 0 0 0 0 0 
0 0 0 0 0 0 0 0 0 
0 0 0 0 0 0 0 0 0 
0 0 0 0 0 0 0 0 0 
0 0 0 0 0 0 0 0 0 
0 0 0 0 0 0 0 0 0 
0 0 0 0 0 0 0 0 0 
0 0 0 0 0 0 0 0 0 
0 0 0 0 0 0 0 0 0 
0 0 0 0 0 0 0 0 0 
0 0 0 0 0 0 0 0 0 
0 0 0 0 0 0 0 0 0 
0 0 0 0 0 0 0 0 0 
0 0 0 0 0 0 0 0 0 
0 0 0 0 0 0 0 0 0 
0 0 0 0 0 0 0 0 0 
0 0 0 0 0 0 0 0 0 
0 0 0 0 0 0 0 0 0 
0 0 0 0 0 0 0 0 0 
0 0 0 0 0 0 0 0 0 
0 0 0 0 0 0 0 0 0 
0 0 0 0 0 0 0 0 0 
0 0 0 0 0 0 0 0 0 
0 0 0 0 0 0 0 0 0 
0 0 0 0 0 0 0 0 0 
0 0 0 0 0 0 0 0 0 
0 0 0 0 0 0 0 0 0 
0 0 0 0 0 0 0 0 0 
0 0 0 0 0 0 0 0 0 
0 0 0 0 0 0 0 0 0 
0 0 0 0 0 0 0 0 0 
0 0 0 0 0 0 0 0 0 
0 0 0 0 0 0 0 0 0 
0 0 0 0 0 0 0 0 0 
0 0 0 0 0 0 0 0 0 
0 0 0 0 0 0 0 0 0 
0 0 0 0 0 0 0 0 0 
0 0 0 0 0 0 0 0 0 
0 0 0 0 0 0 0 0 0 
0 0 0 0 0 0 0 0 0 
0 0 0 0 0 0 0 0 0 
0 0 0 0 0 0 0 0 0 
0 0 0 0 0 0 0 0 0 
0 0 0 0 0 0 0 0 0 
0 0 0 0 0 0 0 0 0 
0 0 0 0 0 0 0 4.66975e-13 0 
0 0 0 0 0 0 0 0 0 
0 0 0 0 0 0 0 0 0 
0 0 0 0 0 0 0 0 0 
0 0 0 0 0 0 0 0 0 
0 0 0 0 0 0 0 0 0 
0 0 0 0 0 0 0 0 0 
0 0 0 0 0 0 0 0 0 
0 0 0 0 0 0 0 0 0 
0 0 0 0 0 0 0 0 0 
0 0 0 0 0 0 0 0 0 
0 0 0 0 0 0 0 0 0 
0 0 0 0 0 0 0 0 0 
0 0 0 0 0 0 0 0 0 
0 0 0 0 0 0 0 0 0 
0 0 0 0 0 0 0 0 0 
0 0 0 0 0 0 0 0 0 
0 0 0 0 0 0 0 0 0 
0 0 0 0 0 0 0 0 0 
0 0 0 0 0 0 0 0 0 
0 0 0 0 0 0 0 0 0 
0 0 0 0 0 0 0 0 0 
0 0 0 0 0 0 0 0 0 
0 0 0 0 0 0 0 0 0 
0 0 0 0 0 0 0 0 0 
0 0 0 0 2.23341e-13 0 0 0 0 
0 0 0 0 0 0 0 0 0 
0 0 0 0 0 0 0 0 0 
0 0 0 0 0 0 0 0 0 
0 0 0 0 0 0 0 0 0 
0 0 0 0 0 0 0 0 0 
0 0 0 0 0 0 0 0 0 
0 0 0 0 0 0 0 0 0 
0 0 0 0 0 0 0 0 0 
0 0 0 0 0 0 0 0 0 
0 0 0 0 0 0 0 0 1.79159e-12 
0 0 0 0 0 0 0 0 0 
0 0 0 0 0 0 0 0 0 
0 0 0 0 0 0 0 0 0 
0 0 0 0 0 0 0 0 0 
0 0 0 0 0 0 0 0 0 
0 0 0 0 0 0 0 0 0 
0 0 0 0 0 0 0 0 0 
0 0 0 0 0 0 0 0 0 
0 0 0 0 0 0 0 0 0 
0 0 0 0 0 0 0 0 0 
0 0 0 0 0 0 0 0 0 
0 0 0 0 0 0 0 0 0 
0 0 0 0 0 0 0 0 0 
0 0 0 0 0 0 0 0 0 
0 0 0 0 0 0 0 0 0 
0 0 0 0 0 0 0 0 0 
0 0 1.42224e-12 0 0 0 0 0 0 
0 0 0 0 0 0 0 0 0 
0 0 0 0 0 0 0 0 0 
0 0 0 0 0 0 0 0 0 
0 0 0 0 0 0 0 0 0 
0 0 0 0 0 0 0 0 0 
0 0 0 0 0 0 0 0 0 
0 0 0 0 0 0 0 0 0 
0 0 0 0 0 0 0 0 0 
0 0 0 0 0 0 0 0 0 
0 0 0 0 0 0 0 0 0 
0 0 0 0 0 0 0 0 0 
0 0 0 0 0 0 0 0 0 
0 0 0 0 0 0 0 0 0 
0 0 0 0 0 0 0 0 0 
0 0 0 0 0 0 0 0 0 
0 0 0 0 0 0 0 0 0 
0 0 0 0 0 0 0 0 0 
0 0 0 0 0 0 0 0 0 
0 0 0 0 0 0 0 0 0 
0 0 0 0 0 0 0 0 0 
0 0 3.8034e-13 0 0 0 0 0 0 
0 0 0 0 0 0 0 0 0 
0 0 0 0 0 0 0 0 0 
0 0 0 0 0 0 0 0 0 
0 0 0 0 0 0 0 0 0 
0 0 0 0 0 0 0 0 0 
0 0 0 0 0 0 0 0 0 
0 0 0 0 0 0 0 0 0 
0 0 0 0 0 0 0 0 0 
0 5.86189e-13 0 0 0 0 0 0 0 
0 0 0 0 0 0 0 0 0 
0 0 0 0 0 0 0 0 0 
0 0 0 0 0 0 0 0 0 
0 0 0 0 0 0 0 0 0 
0 0 0 0 0 0 0 0 0 
0 0 0 0 0 0 0 0 0 
0 0 0 0 0 0 0 0 0 
0 0 0 0 0 0 0 0 0 
0 0 0 0 0 0 0 0 0 
0 0 0 0 0 0 0 0 0 
0 0 0 0 0 0 0 0 0 
0 0 0 0 0 0 0 0 0 
0 0 0 0 0 0 0 0 0 
0 0 0 0 0 0 0 0 0 
0 0 0 0 0 0 0 0 0 
0 0 0 0 0 0 0 0 0 
0 0 0 0 0 0 0 0 0 
0 0 0 0 0 0 0 0 0 
0 0 0 0 0 0 0 0 0 
0 0 0 0 0 0 0 0 0 
0 0 0 0 0 0 0 0 0 
0 0 1.15853e-12 0 0 0 0 0 0 
0 0 0 0 0 0 0 0 0 
0 0 0 0 0 0 0 0 0 
0 0 0 0 0 0 0 0 0 
0 0 0 0 0 0 0 0 0 
0 0 0 0 0 0 0 0 0 
0 0 0 0 0 0 0 0 0 
0 0 0 0 0 0 0 0 0 
0 0 0 0 0 0 0 0 0 
0 0 0 0 0 0 0 0 0 
0 0 0 0 0 0 0 0 0 
0 0 0 0 0 0 0 0 0 
0 0 0 0 0 0 0 0 0 
0 0 0 0 0 0 0 0 0 
0 0 0 0 0 0 0 0 0 
0 0 0 0 0 0 0 0 0 
0 0 0 0 2.20825e-12 0 0 0 0 
0 0 0 0 0 0 0 0 0 
0 0 0 0 0 0 0 0 0 
0 0 0 0 0 0 0 0 0 
0 0 0 0 0 0 0 0 0 
0 0 0 0 0 0 0 0 0 
0 0 0 0 0 0 0 0 0 
0 0 0 0 0 0 0 0 0 
0 0 0 0 0 0 0 0 0 
0 0 0 0 0 0 0 0 0 
0 0 0 0 0 0 0 0 0 
0 0 0 0 0 0 0 0 0 
0 0 0 0 0 0 0 0 0 
0 0 0 0 0 0 0 0 0 
0 0 0 0 0 0 0 0 0 
0 0 0 0 0 0 0 0 0 
0 0 0 0 0 0 0 0 0 
0 0 0 0 0 0 0 0 0 
0 0 0 0 0 0 0 0 0 
0 0 0 0 0 0 0 0 0 
0 2.20776e-12 0 0 0 0 0 0 0 
0 0 0 0 0 0 0 0 0 
0 0 0 0 0 0 0 0 0 
0 0 0 0 0 0 0 0 0 
0 0 0 0 0 0 0 0 0 
0 0 0 0 0 0 0 0 0 
0 0 0 0 0 0 0 0 0 
0 0 0 0 0 0 0 0 0 
0 0 0 0 0 0 0 0 0 
0 0 0 6.74826e-13 0 0 0 0 0 
0 0 0 0 0 0 0 0 0 
0 0 0 0 0 0 0 0 0 
0 0 0 0 0 0 0 0 0 
0 0 0 0 0 0 0 0 0 
0 0 0 0 0 0 0 0 0 
0 0 0 0 0 0 0 0 0 
0 0 0 0 0 0 0 0 0 
0 0 0 0 0 0 0 0 0 
0 0 0 0 0 0 0 0 0 
0 0 0 0 0 0 0 0 0 
0 0 0 0 0 0 0 0 0 
0 0 0 0 0 0 0 0 0 
0 0 0 0 0 0 0 0 0 
0 0 0 0 0 0 0 0 5.17812e-13 
0 0 0 0 0 0 0 0 0 
0 0 0 0 0 0 0 0 0 
0 0 0 0 0 0 0 0 0 
0 0 0 0 0 0 0 0 7.56691e-12 
0 0 0 0 0 0 0 0 0 
0 0 0 0 0 0 0 0 0 
0 0 0 3.89966e-12 0 0 0 0 0 
0 0 0 0 0 0 0 0 0 
0 0 0 7.72593e-12 0 0 0 0 0 
0 0 0 0 0 0 0 0 0 
0 0 0 0 0 0 0 0 0 
0 0 3.23275e-12 0 0 0 0 0 0 
0 0 0 0 0 0 0 0 0 
0 0 0 0 0 0 0 0 0 
0 0 0 0 0 0 0 0 0 
0 0 0 0 0 0 0 0 0 
0 0 0 0 0 0 0 0 0 
0 0 0 0 0 0 0 0 0 
0 0 0 0 0 0 0 0 0 
0 0 0 0 0 0 0 0 0 
0 0 0 0 0 0 0 0 0 
0 0 0 0 0 0 0 0 0 
0 0 0 0 0 0 0 0 0 
0 0 0 0 0 0 0 0 0 
0 0 0 0 0 0 0 0 0 
0 0 0 0 0 0 0 0 0 
0 0 0 0 0 0 0 0 0 
0 0 0 0 0 0 0 0 0 
0 0 0 0 0 0 0 0 0 
0 0 0 0 0 0 0 0 0 
0 0 0 0 0 6.58775e-12 0 0 0 
0 0 0 0 0 0 0 0 0 
0 0 0 0 0 0 0 0 0 
0 0 0 0 0 0 0 0 1.71199e-12 
0 0 0 0 0 0 0 0 0 
0 0 0 0 0 0 0 0 0 
0 0 0 0 0 0 0 5.378e-12 0 
0 0 0 0 0 0 0 0 0 
0 0 0 0 0 0 0 0 0 
0 0 0 0 0 0 0 0 0 
0 0 0 0 0 2.59392e-12 0 0 0 
0 0 0 0 0 0 0 0 0 
0 0 0 0 0 0 0 0 0 
0 0 0 0 0 0 0 0 0 
0 0 0 0 0 0 0 0 0 
0 0 0 0 0 0 0 0 0 
0 0 0 0 0 0 0 0 0 
0 0 0 0 0 0 0 0 0 
0 0 0 0 0 0 0 0 0 
0 0 0 0 0 0 0 0 0 
0 0 0 0 0 0 0 0 0 
0 0 0 0 0 0 0 0 0 
0 0 0 0 0 0 0 0 0 
0 0 0 0 0 0 0 0 0 
0 0 0 0 0 0 0 0 0 
0 0 0 0 0 0 0 0 0 
0 0 0 0 0 0 0 0 0 
0 0 0 0 0 0 0 0 0 
0 0 0 0 0 0 0 0 0 
1.86351e-11 5.77975e-13 0 0 2.63601e-11 1.14013e-11 0 0 0 
0 0 0 0 0 0 0 0 0 
0 1.6764e-11 0 0 0 0 0 0 2.13855e-11 
0 0 0 0 0 0 0 0 0 
0 0 0 0 0 0 0 0 0 
0 0 0 0 0 0 0 0 0 
0 0 0 0 0 0 0 0 0 
0 0 0 0 0 0 0 0 0 
0 0 0 0 0 0 0 0 0 
0 0 0 0 0 0 0 0 0 
0 0 0 0 0 0 0 0 0 
0 0 0 0 0 0 0 0 0 
0 0 0 0 0 0 0 0 0 
0 0 0 0 0 0 0 0 0 
0 0 0 0 0 0 0 0 0 
0 1.05847e-12 0 0 0 0 0 0 0 
0 0 0 0 0 0 0 0 0 
0 0 0 0 0 0 0 0 0 
0 0 0 0 0 0 0 0 0 
0 0 0 0 0 0 0 0 0 
0 0 0 0 0 0 0 0 0 
0 0 0 0 0 0 0 0 0 
0 0 0 0 0 0 0 0 0 
0 0 0 0 0 2.78153e-12 0 0 0 
0 0 0 0 0 0 0 0 0 
0 0 0 0 0 0 0 0 0 
0 0 9.00472e-12 0 0 0 0 0 0 
0 0 0 0 0 1.53708e-11 1.54314e-11 0 0 
0 0 0 0 0 0 0 0 0 
0 0 0 0 0 0 0 0 0 
0 0 0 0 0 0 0 0 0 
1.07658e-11 0 0 0 0 2.37709e-11 0 0 0 
0 0 0 0 0 1.42231e-11 0 0 0 
0 0 0 0 0 0 0 0 0 
0 0 0 0 0 0 0 0 0 
0 0 0 0 0 0 0 0 0 
0 0 0 0 0 1.02442e-11 0 1.57414e-11 0 
0 0 0 0 0 0 0 0 0 
0 0 0 0 0 0 0 0 0 
0 0 0 0 0 0 0 0 0 
0 0 0 0 0 0 0 0 0 
0 0 0 0 0 0 0 0 0 
0 0 0 0 0 0 0 0 0 
0 0 0 0 0 0 0 2.16365e-12 0 
0 0 0 0 0 0 0 0 0 
0 0 0 0 0 0 0 0 0 
0 0 0 0 0 0 0 0 0 
0 0 0 0 0 0 0 0 0 
0 0 0 0 0 0 0 0 0 
0 0 0 0 0 0 0 0 0 
0 0 0 0 0 0 0 0 0 
0 0 0 0 0 0 0 0 0 
0 0 0 0 0 0 0 0 0 
0 0 0 0 0 0 0 0 1.46141e-12 
0 0 0 0 0 0 0 0 0 
0 0 0 0 0 8.28447e-12 0 2.3903e-11 0 
0 0 0 0 0 0 0 0 0 
0 0 0 0 2.85289e-11 0 2.97258e-11 0 0 
1.16806e-11 0 0 0 0 0 0 0 0 
3.24746e-11 0 0 0 0 0 0 0 0 
0 1.88167e-11 2.80896e-11 0 0 0 0 0 0 
0 0 0 0 0 0 0 0 0 
0 0 0 0 2.42739e-12 0 0 0 0 
0 0 0 0 0 0 4.71894e-12 0 0 
0 0 0 0 0 0 0 0 0 
0 0 0 0 0 0 0 0 0 
0 0 0 0 0 0 0 0 0 
0 0 0 0 0 0 0 0 0 
0 0 0 0 0 0 0 0 0 
0 0 0 0 0 0 0 0 0 
0 0 0 0 0 0 0 0 0 
0 0 8.17137e-12 0 0 0 0 0 0 
0 0 0 0 0 0 0 0 0 
0 0 0 0 0 0 0 0 0 
0 0 0 0 0 0 0 0 0 
0 0 0 0 0 0 0 0 0 
0 0 0 0 0 0 0 0 0 
0 0 0 0 0 0 0 0 0 
0 0 0 0 3.18379e-12 0 0 0 0 
0 0 0 0 0 0 0 0 0 
0 0 0 0 0 0 0 0 0 
0 0 8.17331e-12 9.39889e-12 0 0 0 7.19336e-12 0 
0 0 0 0 0 0 0 0 0 
0 2.30531e-11 0 7.98714e-12 0 0 0 0 0 
0 0 1.29719e-11 0 0 0 0 0 0 
0 0 0 0 0 0 0 0 0 
0 0 0 0 0 0 0 8.07768e-12 0 
1.35485e-12 0 0 0 3.71697e-12 0 0 0 0 
0 3.35204e-11 0 0 0 0 0 0 0 
5.94716e-12 0 0 0 0 0 0 0 0 
0 0 0 0 0 0 0 0 0 
6.6365e-12 0 0 0 0 0 0 4.52183e-12 0 
0 0 0 0 0 0 1.19221e-11 0 0 
0 0 0 0 0 0 0 0 0 
0 0 0 0 0 0 0 0 0 
0 0 0 0 0 0 0 0 0 
0 0 0 0 0 0 0 0 0 
0 0 0 0 0 0 0 0 0 
0 0 0 0 0 0 0 0 9.10239e-12 
0 0 0 1.64603e-11 0 0 0 0 0 
0 0 0 0 0 0 0 0 0 
0 0 0 0 0 0 0 0 0 
0 0 0 0 0 0 0 0 0 
0 0 0 0 0 0 0 0 0 
0 0 0 0 0 0 0 0 0 
0 0 0 0 0 0 0 0 0 
0 0 0 0 0 0 0 0 0 
0 0 0 0 0 0 0 0 0 
0 0 0 0 1.92463e-12 0 0 0 0 
0 0 0 0 0 0 0 0 0 
0 0 1.25735e-11 1.3615e-11 0 1.76065e-11 0 0 0 
4.07548e-11 0 3.80138e-11 0 0 0 0 0 0 
2.37154e-11 0 0 0 0 0 0 0 0 
0 2.6571e-11 0 0 0 0 0 5.56263e-11 0 
0 0 0 0 0 0 0 6.23561e-13 0 
0 0 0 0 0 0 0 0 0 
3.99956e-11 0 0 1.04377e-11 0 1.16956e-11 0 0 0 
0 0 0 0 0 0 8.35984e-12 0 0 
0 0 0 0 0 0 0 0 0 
3.04426e-11 0 0 0 0 0 0 0 0 
0 0 0 0 0 0 0 0 0 
0 0 0 1.76186e-11 0 0 1.53566e-11 0 0 
0 0 0 0 0 0 0 0 0 
0 0 0 0 0 0 0 0 0 
0 0 0 0 0 0 0 0 0 
0 0 0 0 0 0 0 0 0 
0 0 0 5.76491e-12 0 0 0 0 0 
0 0 0 0 0 0 0 0 0 
1.16336e-11 0 0 0 0 0 0 0 0 
0 0 0 0 0 0 0 0 0 
0 0 0 0 0 0 0 0 0 
0 0 0 0 0 0 0 0 0 
0 0 0 0 0 0 0 0 0 
0 0 0 0 0 0 0 0 0 
0 0 0 0 0 0 0 0 0 
0 0 0 0 0 0 6.73053e-12 0 0 
2.80754e-11 0 3.25928e-11 0 0 0 0 0 0 
0 0 0 0 0 0 0 0 0 
0 0 0 0 2.23385e-11 0 2.84172e-11 0 0 
2.66331e-11 2.46163e-11 0 0 0 3.84244e-11 0 0 0 
0 0 0 0 0 0 0 0 0 
0 0 0 1.77073e-11 7.36013e-11 0 0 2.87653e-11 0 
4.25429e-11 0 0 0 0 0 0 0 0 
0 2.93114e-11 0 5.3279e-11 0 0 0 0 0 
0 0 0 0 1.63027e-11 0 0 0 1.51602e-11 
0 0 0 0 0 0 0 0 0 
0 0 0 0 0 0 0 0 0 
0 0 0 5.56758e-11 1.83891e-11 0 0 0 0 
0 0 0 0 7.94025e-12 0 0 0 0 
0 6.45709e-12 0 0 0 0 0 0 0 
0 0 1.14103e-11 0 0 0 0 0 0 
0 0 0 0 0 0 0 0 0 
0 0 0 0 0 0 0 0 0 
0 0 0 0 0 0 0 0 0 
2.8302e-13 0 0 0 0 0 0 0 3.32077e-11 
0 0 0 0 0 0 0 0 0 
0 0 0 0 0 0 0 0 0 
0 0 0 0 0 0 0 0 0 
0 0 0 0 0 0 0 0 0 
0 0 0 0 0 0 0 0 0 
0 0 0 0 0 0 0 0 0 
0 0 0 0 0 0 0 0 0 
0 0 0 0 0 0 0 0 0 
0 0 0 0 0 0 0 0 0 
2.90373e-11 0 0 0 4.43933e-11 0 0 0 0 
0 0 0 0 0 0 0 0 0 
0 0 1.23234e-11 2.86682e-11 0 0 0 0 0 
0 0 0 0 1.81259e-11 0 0 0 0 
0 0 0 0 0 7.09565e-11 0 0 5.22707e-12 
2.51439e-11 0 5.97865e-11 1.03168e-10 0 0 0 0 0 
0 0 0 0 0 0 0 0 0 
4.43421e-11 4.31561e-11 0 0 5.98943e-11 0 0 0 0 
3.18985e-11 0 0 0 0 0 0 0 0 
0 0 0 0 2.69032e-11 0 0 0 0 
0 8.67941e-12 0 0 0 0 0 0 0 
0 0 0 0 4.77988e-11 0 0 1.1363e-11 0 
9.94807e-12 0 0 1.59429e-11 0 0 0 0 0 
0 0 0 0 0 0 0 0 0 
0 1.03545e-11 8.36958e-12 9.1881e-13 0 0 0 0 0 
0 2.1516e-11 0 0 0 0 0 0 0 
0 0 0 0 0 0 0 0 0 
0 0 0 0 0 0 0 1.00636e-11 0 
0 1.4835e-11 0 0 0 0 0 0 0 
0 0 0 0 6.39661e-12 0 0 0 0 
0 0 0 0 0 0 0 0 0 
6.64e-14 0 0 0 0 0 0 0 0 
0 0 0 0 0 0 0 0 0 
0 0 0 0 0 0 0 0 0 
0 0 0 0 0 0 0 0 0 
0 0 0 0 0 0 0 0 0 
0 0 0 0 0 1.47039e-11 0 0 0 
0 7.83375e-12 0 0 1.55274e-11 0 0 0 0 
0 0 4.17721e-11 0 0 0 0 4.75989e-11 0 
0 0 0 0 0 1.23273e-11 0 0 0 
0 0 0 0 8.83964e-11 0 2.05954e-10 0 0 
0 0 5.09897e-11 3.59709e-11 2.53771e-11 0 0 3.12559e-11 0 
0 0 0 0 0 4.65469e-12 0 0 7.74178e-11 
0 0 0 0 0 0 7.71858e-11 0 0 
0 0 7.16393e-13 0 7.49076e-11 0 0 5.57646e-11 0 
0 0 0 0 0 2.2498e-11 0 0 0 
3.32121e-11 0 0 0 0 0 2.13242e-11 0 0 
0 0 0 0 0 0 0 0 4.69216e-11 
0 0 0 0 8.55645e-11 0 1.32776e-10 0 0 
0 3.10807e-11 0 0 0 0 2.87413e-11 0 0 
5.91826e-11 0 4.24594e-11 0 0 2.10512e-11 0 0 0 
0 0 0 0 1.87282e-11 0 0 3.41339e-11 0 
0 0 2.37096e-11 2.81132e-11 0 0 0 0 0 
0 0 0 0 0 0 0 0 0 
0 0 0 0 0 0 0 0 0 
0 0 0 0 0 0 0 0 0 
0 0 2.28388e-11 1.95981e-12 0 0 0 3.53951e-11 0 
0 0 0 0 0 0 0 0 0 
0 0 0 0 0 0 0 0 0 
0 0 0 0 0 0 0 0 0 
0 0 0 0 0 0 0 0 0 
0 0 0 0 0 0 0 0 0 
0 0 0 0 0 0 0 0 0 
0 0 0 0 0 0 0 3.31234e-11 0 
0 0 0 0 6.4334e-12 6.86358e-12 0 0 0 
0 0 0 0 0 4.59771e-11 0 0 0 
0 2.42437e-10 0 0 6.85153e-11 0 0 0 0 
3.37912e-12 0 0 1.6934e-11 0 0 0 0 0 
0 0 0 1.96532e-10 2.43287e-08 0 0 0 4.69537e-11 
0 2.95509e-11 0 0 0 0 0 0 0 
0 0 0 0 2.41611e-10 0 0 0 3.63908e-11 
0 1.61467e-11 0 2.48522e-11 0 0 0 0 5.78711e-11 
0 0 5.26022e-12 0 0 0 0 0 0 
0 0 0 0 0 0 0 0 3.75157e-11 
0 0 2.30834e-11 0 1.28493e-11 0 0 0 0 
0 0 4.84658e-11 0 0 0 0 0 0 
0 0 6.38063e-11 6.56065e-11 0 0 0 0 0 
1.26607e-10 1.42765e-11 0 0 0 9.6057e-11 4.99841e-11 0 0 
0 0 0 0 0 0 0 0 0 
0 2.34449e-11 0 0 0 0 0 0 0 
2.33481e-11 0 0 0 0 2.20052e-11 0 0 0 
0 0 0 0 0 0 0 0 0 
0 0 0 4.56143e-12 0 0 0 1.14056e-11 0 
0 0 1.95657e-11 0 0 2.99261e-11 0 0 0 
0 0 0 6.60601e-11 0 3.78862e-11 0 0 0 
0 0 0 0 0 0 1.79786e-12 0 0 
0 0 0 0 0 0 0 0 0 
0 0 0 0 0 0 0 0 0 
0 0 0 0 0 0 0 0 0 
0 0 0 0 0 0 0 0 0 
0 0 0 0 0 0 0 0 0 
0 0 0 0 1.55861e-11 1.33675e-11 0 0 5.38021e-11 
0 0 0 4.41711e-11 2.17963e-12 2.39227e-11 0 0 0 
0 0 0 0 0 0 0 0 0 
0 3.22097e-11 0 0 0 2.26523e-11 7.07066e-11 0 4.54295e-12 
0 1.36915e-11 0 0 5.59929e-12 1.80074e-11 4.74731e-11 0 0 
0 0 0 1.81677e-10 0 0 4.45805e-11 0 1.96776e-11 
0 0 0 0 0 0 0 1.9083e-11 5.54455e-11 
2.69013e-11 1.39298e-10 2.54824e-08 0 0 0 0 0 0 
2.25531e-11 0 0 0 2.64892e-08 0 1.72633e-12 1.30555e-10 0 
0 2.43208e-12 5.398e-11 0 2.39426e-11 1.06392e-10 1.38373e-10 0 0 
0 0 0 5.16796e-11 2.88857e-11 1.70722e-11 0 0 0 
0 0 0 2.23098e-11 0 0 0 0 0 
8.22191e-12 0 1.10936e-10 5.91661e-11 0 0 0 0 0 
0 0 0 2.52217e-08 0 0 0 2.64895e-11 0 
8.78944e-11 0 0 1.79317e-10 5.47745e-11 0 0 6.59542e-11 7.25649e-11 
0 0 3.23025e-11 0 0 3.53173e-11 0 0 0 
0 4.5641e-11 0 0 2.17362e-11 0 0 0 0 
0 0 0 0 0 0 0 2.89215e-11 0 
0 0 0 0 0 0 0 0 0 
0 0 0 0 0 0 6.78634e-12 0 0 
0 0 0 0 0 0 0 0 6.41344e-12 
0 0 0 0 0 0 0 0 0 
0 0 1.04972e-11 0 0 0 0 0 0 
0 0 0 0 0 0 0 0 0 
0 0 0 0 0 0 0 0 0 
0 0 0 0 0 0 0 0 0 
0 0 0 0 0 0 0 0 0 
0 0 0 0 0 0 0 0 0 
1.42715e-11 0 0 0 0 7.47389e-11 8.64251e-11 0 0 
0 2.22487e-11 0 0 0 0 0 0 0 
0 0 0 0 0 1.10271e-11 0 0 0 
0 0 0 0 0 0 4.05262e-11 0 0 
0 0 0 0 1.06964e-11 0 7.98716e-11 8.44969e-11 0 
0 0 1.00372e-10 7.43117e-11 5.09257e-12 0 0 0 0 
0 0 0 0 0 4.42674e-11 0 0 0 
1.30573e-10 0 0 0 1.4227e-10 0 0 0 0 
2.8947e-11 0 1.70672e-10 0 0 0 0 0 5.70256e-11 
2.43598e-11 0 7.47775e-11 1.95341e-11 0 0 2.46636e-08 0 0 
3.25254e-11 0 0 0 0 1.31515e-11 0 0 0 
0 0 4.54937e-11 0 0 9.02972e-11 6.6332e-11 0 0 
1.04525e-10 7.55863e-11 2.29931e-11 0 7.08378e-11 0 0 0 1.36578e-10 
0 0 0 3.22926e-11 0 1.74031e-10 0 0 0 
1.05752e-10 0 0 0 4.85397e-11 6.40971e-11 0 8.21932e-12 0 
0 4.81156e-13 8.78889e-12 2.14218e-11 0 0 0 0 0 
0 0 0 0 0 2.6935e-11 0 8.21039e-11 0 
0 0 5.43375e-11 0 7.82914e-11 0 0 0 0 
0 0 0 0 0 0 0 0 0 
0 7.60555e-12 0 0 0 0 0 0 0 
0 0 1.90011e-11 9.72405e-11 1.20246e-11 0 0 0 0 
0 5.38733e-11 0 3.66552e-11 3.32872e-11 0 0 0 1.25309e-11 
0 2.06051e-11 0 0 0 0 0 0 0 
0 0 0 0 0 0 0 0 0 
0 0 0 0 0 0 0 0 0 
0 0 0 0 0 0 0 0 0 
0 0 0 0 0 0 0 0 0 
0 0 0 0 0 0 0 0 0 
0 5.10596e-12 0 5.42686e-11 0 0 0 0 0 
0 0 0 3.94286e-11 5.04975e-11 0 0 0 0 
0 2.63487e-08 0 2.37179e-10 0 0 1.00849e-11 3.14399e-13 0 
0 1.21812e-10 1.01218e-11 0 0 0 0 0 4.64654e-11 
3.08698e-11 0 0 0 0 2.50603e-11 6.66805e-11 0 0 
0 0 0 0 1.10448e-11 0 0 0 0 
0 0 0 0 0 0 5.27152e-11 0 0 
0 0 9.16105e-11 0 2.86289e-11 0 0 0 0 
0 0 0 3.05202e-13 0 0 5.16834e-11 1.23684e-11 0 
0 1.26262e-10 0 0 0 0 3.59107e-10 0 0 
0 0 0 0 0 0 0 1.69867e-11 0 
0 0 0 0 0 2.17366e-10 0 0 5.71819e-11 
0 0 0 3.85543e-11 5.33909e-11 2.83762e-11 0 0 0 
1.26061e-10 0 0 0 0 2.92851e-10 2.73351e-08 2.54955e-10 0 
0 0 1.1991e-10 0 0 9.3311e-11 0 0 1.24889e-12 
5.29485e-12 0 0 0 0 7.47763e-12 0 0 0 
0 5.94719e-11 1.18446e-10 0 0 0 0 4.45435e-11 6.46933e-11 
0 0 0 0 0 0 0 1.04971e-11 0 
0 0 0 0 8.04869e-12 0 0 0 0 
0 0 0 0 3.6383e-11 0 0 0 0 
0 0 6.95853e-11 0 0 2.34547e-10 0 0 0 
0 0 0 5.3304e-11 0 0 0 0 0 
0 0 5.19765e-12 0 0 6.05411e-12 0 0 0 
0 0 0 0 0 0 0 0 0 
0 0 0 0 0 0 0 0 0 
0 0 0 0 0 0 0 0 0 
0 0 0 0 2.09535e-12 0 0 0 0 
0 0 9.41369e-12 0 0 0 0 3.93639e-11 0 
0 6.93055e-11 0 0 2.47326e-08 0 3.51658e-11 0 0 
3.95091e-11 0 3.6946e-11 0 0 0 0 0 0 
3.52265e-10 0 0 0 0 2.18277e-11 1.40755e-10 0 0 
1.53236e-10 0 0 0 8.75429e-11 7.86977e-12 0 0 0 
0 0 4.28119e-11 1.37524e-11 0 0 3.21137e-11 0 0 
0 0 0 1.82983e-11 0 2.23291e-11 0 2.17138e-11 0 
0 0 0 0 0 2.4136e-10 2.08403e-10 0 0 
0 3.21223e-11 6.90408e-11 1.00397e-10 0 0 1.63937e-10 0 0 
3.83719e-11 0 0 0 0 0 9.91383e-11 1.00951e-10 0 
1.37131e-10 0 1.53189e-10 0 0 1.03446e-10 0 6.12781e-11 0 
0 0 1.27956e-11 0 0 0 0 0 0 
3.84232e-11 0 0 2.4473e-08 1.56862e-10 0 1.06486e-10 0 0 
0 0 0 0 0 1.0187e-10 0 0 1.49146e-10 
6.90922e-13 1.26986e-11 0 0 0 1.83523e-10 0 0 1.94605e-10 
0 0 0 0 0 0 1.63794e-10 0 3.51156e-11 
0 0 0 0 0 0 0 0 1.20587e-10 
0 0 0 6.77743e-11 1.57561e-10 0 0 0 0 
0 0 0 0 0 0 0 9.64046e-12 0 
0 0 0 0 0 0 0 0 7.98406e-12 
0 0 0 0 0 0 1.18641e-10 0 8.06801e-11 
0 0 0 2.49532e-08 0 0 0 0 6.67657e-11 
0 0 3.38274e-11 0 1.99401e-11 0 9.25626e-12 0 0 
0 1.13665e-11 0 0 0 0 0 0 0 
0 0 0 0 0 0 0 0 0 
1.88862e-13 0 0 0 0 0 0 0 0 
0 0 0 0 0 0 0 0 0 
0 0 0 0 0 0 0 0 0 
0 0 0 0 0 0 0 0 5.76326e-12 
0 1.84615e-10 8.10665e-11 1.19726e-10 3.28352e-11 0 0 0 0 
0 0 0 0 0 0 0 0 0 
2.14001e-10 0 0 8.69353e-12 0 1.08517e-10 1.45022e-10 5.03265e-11 0 
0 0 0 0 0 0 0 0 0 
2.7203e-11 0 0 0 0 3.73669e-11 0 7.52685e-11 0 
0 0 0 0 2.6078e-11 0 0 2.34288e-11 0 
6.08352e-11 0 0 0 1.53006e-10 0 4.74808e-11 0 0 
2.86156e-10 0 0 3.01779e-10 0 0 0 0 0 
0 0 0 3.60396e-11 0 6.92645e-11 0 0 2.26947e-10 
0 0 0 0 4.71634e-11 6.76205e-12 0 0 0 
0 0 0 0 0 0 0 0 1.86114e-11 
0 0 0 0 9.96159e-11 0 0 4.21319e-11 0 
6.43207e-11 0 0 2.42032e-11 0 0 0 0 1.00598e-10 
0 0 0 0 1.53176e-10 2.76498e-10 2.71297e-08 0 0 
0 1.28042e-11 0 0 0 6.45075e-11 0 0 0 
0 9.38617e-12 0 2.05704e-12 7.1344e-11 0 1.67043e-10 7.815e-11 0 
0 0 0 0 0 4.43049e-11 0 0 0 
0 0 0 0 0 0 0 0 0 
0 0 2.66742e-12 0 0 0 9.61225e-12 0 0 
0 0 0 2.37247e-11 4.86216e-11 0 0 2.04431e-11 3.29175e-11 
0 0 0 0 0 5.56482e-12 0 6.1315e-11 4.07497e-11 
0 0 0 0 0 9.7047e-12 0 0 0 
0 1.35381e-11 0 0 0 0 0 0 0 
0 0 1.93856e-12 0 0 0 0 0 0 
0 0 0 0 0 0 0 0 0 
0 0 0 0 0 0 0 0 0 
0 0 0 0 0 0 0 0 0 
0 0 0 9.10661e-13 0 0 6.72422e-11 1.86844e-11 0 
1.13224e-10 2.0048e-11 3.06942e-11 0 0 0 1.62487e-12 0 1.88806e-10 
0 0 2.37378e-11 0 0 2.71415e-10 0 0 2.14808e-10 
0 0 0 0 2.68295e-08 0 0 4.32099e-11 0 
4.33293e-11 0 0 0 6.59865e-11 0 0 0 0 
0 0 0 0 0 0 0 0 0 
0 0 1.86782e-12 0 0 6.55737e-11 7.01442e-11 2.34205e-11 0 
0 0 0 0 0 0 0 0 0 
0 0 0 0 0 0 0 0 1.26682e-10 
0 1.6467e-11 1.78325e-10 1.02974e-10 4.24907e-13 0 2.15923e-11 0 0 
0 0 0 0 0 1.49994e-11 0 0 1.20697e-12 
0 0 0 9.34674e-11 0 0 0 0 3.00017e-11 
2.85147e-11 0 1.47882e-10 0 0 1.02831e-11 0 0 0 
0 8.34757e-11 0 0 0 0 0 1.21073e-10 0 
0 0 0 2.32372e-10 0 0 0 0 0 
0 0 0 0 0 4.645e-11 0 0 0 
0 0 0 3.61495e-11 0 0 0 0 0 
0 0 0 4.95488e-11 5.99297e-11 1.0128e-10 8.76908e-11 0 0 
0 0 0 0 0 0 0 0 0 
0 0 0 2.57327e-11 0 0 0 0 0 
0 0 0 4.36563e-11 0 1.36602e-10 4.85134e-11 0 0 
0 1.88479e-10 0 0 0 0 0 0 0 
0 0 0 0 3.59643e-11 0 0 0 0 
0 0 0 0 0 0 0 0 0 
0 0 0 0 0 0 0 0 0 
0 0 0 0 0 0 0 0 0 
0 0 0 0 0 0 0 0 0 
0 3.30211e-14 0 0 0 0 0 0 0 
0 0 4.97752e-11 0 0 6.13358e-11 0 2.87889e-11 1.52759e-11 
0 0 0 0 0 0 0 0 0 
0 1.3903e-10 0 0 0 0 0 0 0 
0 6.76047e-11 2.48868e-10 0 0 8.66547e-11 0 0 0 
4.21284e-11 0 0 1.44849e-11 0 0 1.39635e-12 0 1.50138e-11 
0 0 0 0 0 0 2.72982e-11 0 6.71213e-11 
0 0 0 7.10277e-11 7.13803e-11 0 0 0 0 
1.76691e-10 0 0 3.03427e-08 0 0 0 3.48523e-08 0 
0 0 0 1.62634e-10 0 1.08664e-10 0 6.88904e-11 1.7442e-10 
1.50771e-11 2.04451e-11 7.91627e-11 0 0 0 0 5.56904e-11 0 
5.30895e-11 0 0 0 0 0 1.88329e-11 0 0 
0 0 0 0 0 0 0 0 0 
1.94756e-11 0 0 0 7.48864e-11 0 0 0 6.37661e-11 
0 0 0 1.74197e-11 0 0 0 5.63156e-11 0 
7.98744e-11 0 0 0 0 0 0 8.54765e-11 3.81084e-11 
0 0 0 0 0 0 1.61925e-10 0 0 
0 0 0 0 0 0 0 0 0 
0 0 0 0 0 6.88743e-11 6.00253e-11 0 0 
0 0 0 0 1.43164e-11 0 0 0 0 
0 3.58515e-11 0 6.04003e-11 0 0 0 0 0 
0 0 9.4705e-11 0 0 0 0 0 0 
0 0 4.68864e-11 6.15474e-11 1.98125e-11 1.00715e-10 0 4.68739e-11 1.31513e-10 
0 0 0 0 0 0 0 0 0 
0 0 0 0 0 0 0 0 0 
0 0 0 0 0 0 0 0 0 
0 0 0 0 0 0 0 0 0 
0 0 0 0 0 0 0 0 0 
0 0 0 0 0 0 0 0 0 
0 3.93548e-11 0 8.52406e-11 0 5.81358e-11 0 0 0 
0 0 0 1.05159e-10 4.43937e-11 4.49495e-11 0 9.70586e-11 0 
0 0 0 0 0 0 0 0 0 
0 0 0 0 0 9.4679e-12 0 0 0 
0 0 0 0 0 0 1.01566e-10 0 0 
0 0 8.00296e-11 0 0 0 9.44603e-12 0 0 
0 0 0 0 0 8.05006e-11 0 1.83435e-10 0 
0 0 2.40218e-10 0 0 0 0 0 0 
0 0 0 0 2.63248e-08 0 0 0 0 
0 0 0 0 0 0 0 0 0 
0 0 0 0 0 0 0 0 1.43841e-11 
0 0 0 0 2.38368e-11 0 0 0 6.2286e-11 
0 1.59184e-12 0 0 1.36235e-10 0 0 0 0 
5.25914e-11 0 0 0 0 0 1.03321e-10 0 7.99593e-11 
6.22193e-11 9.32283e-11 0 0 0 0 1.18267e-10 0 0 
1.07306e-10 2.49715e-08 0 0 0 1.19044e-10 4.74097e-11 0 0 
0 1.87402e-10 0 0 0 0 2.83876e-08 0 0 
6.65824e-11 0 0 0 0 0 0 0 0 
0 0 0 0 0 0 0 0 0 
0 5.02864e-11 0 0 0 9.66776e-11 5.98358e-11 0 0 
9.80786e-12 0 0 0 0 0 0 0 0 
0 0 0 0 0 0 0 0 7.55476e-11 
4.054e-11 0 0 0 0 0 0 0 0 
0 0 0 0 0 0 0 0 0 
0 0 0 0 0 0 0 0 0 
0 0 0 0 0 0 0 0 0 
0 0 0 0 0 0 0 0 0 
0 0 0 0 0 0 2.01016e-11 0 0 
0 6.6975e-11 0 0 0 0 0 9.66474e-11 0 
3.93324e-10 0 0 0 3.07446e-11 7.68394e-11 0 0 0 
0 3.85874e-08 3.87968e-08 0 0 0 3.23458e-11 0 0 
0 0 5.8942e-11 6.49638e-12 0 0 0 0 0 
0 0 8.1203e-11 0 0 4.42144e-11 0 0 0 
0 0 2.36704e-11 0 0 0 0 0 0 
0 1.55925e-11 0 0 1.23132e-11 0 0 0 0 
0 0 0 0 3.34055e-08 0 0 2.12038e-10 0 
2.62529e-10 0 2.67389e-10 0 0 1.28651e-11 0 0 3.79718e-12 
0 0 0 0 0 5.15125e-11 0 0 0 
0 0 0 0 0 0 0 0 0 
0 7.52587e-11 0 0 0 0 0 0 0 
0 9.30536e-12 0 0 0 0 0 0 0 
0 0 0 1.17724e-10 0 0 0 1.61626e-10 0 
0 1.04736e-11 1.80653e-12 0 0 0 0 0 0 
0 6.94278e-11 9.04332e-12 0 1.00078e-10 5.66435e-11 0 2.17536e-10 0 
0 0 0 0 9.51059e-11 0 0 0 2.14922e-11 
0 0 0 0 0 0 0 0 0 
0 0 0 0 1.03575e-11 1.61053e-11 0 0 2.07099e-11 
0 0 0 0 2.57535e-10 0 0 1.35808e-10 0 
4.11103e-11 1.23325e-10 0 0 0 1.10776e-10 2.23781e-10 0 0 
0 0 0 0 0 0 0 0 1.52559e-11 
0 0 0 0 1.12019e-11 7.85682e-12 0 0 0 
0 0 0 0 0 0 0 0 0 
0 0 0 0 0 0 0 0 0 
0 0 0 0 0 0 0 0 0 
0 0 0 0 0 0 0 0 0 
0 0 0 0 1.86593e-11 0 0 0 0 
0 0 6.36026e-11 0 0 0 0 0 0 
0 1.29403e-11 0 0 4.70476e-11 0 8.20912e-11 0 0 
0 0 2.31705e-10 0 0 9.20381e-11 1.03795e-10 0 0 
0 0 3.47916e-11 0 0 0 0 0 0 
7.46045e-12 0 0 8.85834e-11 0 1.17618e-10 0 0 0 
0 0 0 1.7829e-13 0 0 0 0 0 
0 0 0 0 0 0 1.0317e-11 0 2.12226e-11 
0 4.88175e-10 0 0 0 5.95155e-11 0 2.79058e-11 0 
5.36942e-11 0 0 0 0 0 7.73125e-11 0 0 
0 9.14929e-11 0 0 5.17605e-11 0 0 4.51809e-11 0 
0 0 0 0 0 3.35103e-11 0 0 0 
0 0 0 0 8.57231e-12 0 0 0 0 
0 0 0 0 0 0 0 0 0 
0 3.52235e-11 5.54574e-11 0 0 0 0 0 0 
3.77999e-11 0 0 8.59944e-11 0 0 0 0 0 
0 0 0 0 0 1.98928e-11 0 5.80517e-11 0 
5.34068e-11 0 0 2.09374e-10 0 0 0 4.47146e-11 0 
6.93459e-12 0 0 0 0 0 0 0 0 
0 0 0 0 0 0 0 0 0 
1.90788e-10 1.66231e-10 2.6866e-08 0 0 1.94089e-10 0 0 0 
0 0 5.26182e-11 0 0 2.92892e-11 0 0 0 
0 0 0 1.63055e-11 0 0 0 0 0 
0 0 0 0 0 0 0 0 0 
0 0 0 0 0 0 0 0 0 
0 0 0 0 0 0 0 0 0 
0 0 0 0 0 0 0 0 0 
0 0 0 0 0 0 0 0 0 
0 0 0 0 0 0 0 4.93881e-11 0 
0 2.47289e-11 0 0 0 2.68457e-08 0 3.84093e-10 1.14206e-10 
0 0 0 0 2.77008e-10 2.94606e-10 0 0 0 
4.92242e-11 1.97449e-10 0 0 1.11729e-10 0 0 0 0 
0 0 0 0 0 0 0 0 0 
0 0 0 3.39189e-11 9.84545e-11 9.64372e-11 0 2.98984e-10 0 
0 2.84214e-11 0 0 0 0 6.30944e-11 0 0 
0 0 1.1319e-12 1.10797e-10 2.99975e-11 0 3.74344e-11 0 0 
0 0 3.98102e-11 0 1.00741e-10 1.07159e-11 9.34513e-12 0 0 
9.44847e-11 0 8.76233e-12 1.42897e-11 0 0 0 5.70923e-11 0 
0 0 0 0 0 0 0 0 0 
0 0 0 0 3.32693e-11 0 4.4212e-11 0 0 
0 0 0 0 0 0 0 0 0 
0 0 0 0 0 0 4.8495e-11 0 0 
0 0 1.26323e-10 0 0 0 0 9.74276e-12 0 
0 0 0 0 0 5.07833e-11 0 0 9.89377e-12 
1.28988e-10 0 0 0 0 0 0 0 1.88601e-10 
2.73794e-10 0 0 0 9.62483e-11 0 0 1.78971e-11 0 
1.93567e-11 0 0 0 0 0 0 0 0 
0 0 0 0 0 0 0 0 0 
1.08667e-10 8.43793e-11 7.18434e-11 0 0 0 0 0 0 
0 0 2.06257e-10 2.71013e-11 4.11739e-11 1.09751e-10 0 3.11669e-08 0 
0 0 0 0 0 0 0 0 0 
0 0 0 0 0 0 0 0 0 
0 0 0 0 0 0 0 0 0 
0 0 0 0 0 0 0 0 0 
0 0 0 0 0 0 0 0 0 
0 0 0 0 0 0 0 0 0 
0 0 0 0 0 0 0 2.52216e-10 4.33522e-11 
0 0 0 0 2.84334e-10 1.61915e-10 0 4.17759e-12 0 
0 3.31911e-11 0 1.88687e-10 0 0 0 0 0 
3.70122e-11 0 0 0 0 0 0 0 0 
0 0 0 0 0 0 0 1.27441e-10 0 
0 1.29355e-10 0 0 0 0 5.77828e-11 0 2.71577e-11 
1.16037e-11 0 0 5.51531e-11 0 3.52864e-11 0 0 0 
0 0 0 0 0 4.53296e-11 2.16357e-10 2.54313e-11 0 
0 0 0 2.24949e-11 0 0 0 2.03205e-11 0 
0 9.85147e-11 0 0 0 0 0 0 0 
0 5.55094e-11 1.36518e-10 0 0 0 0 0 2.09318e-11 
1.09101e-11 0 6.64117e-11 0 0 0 0 0 0 
1.23294e-10 0 0 0 0 0 0 0 9.38346e-11 
0 0 0 0 0 0 0 0 0 
0 0 0 0 0 0 3.2903e-11 7.85505e-11 0 
8.50572e-12 1.15107e-10 0 0 0 0 0 0 0 
1.00028e-10 0 0 0 0 0 0 0 0 
0 2.65237e-08 0 0 0 0 0 5.02494e-11 0 
0 0 0 0 0 0 0 0 0 
2.40656e-11 0 0 0 1.23284e-10 0 0 0 3.20888e-10 
0 0 0 1.5063e-10 0 0 0 0 0 
0 0 7.89183e-11 0 0 0 0 0 0 
0 0 0 5.14541e-11 0 0 0 0 0 
0 0 0 0 0 0 0 0 0 
0 0 0 0 0 0 0 0 0 
0 0 0 0 0 0 0 0 0 
0 0 0 0 0 0 0 0 0 
0 0 0 0 0 1.75708e-11 0 0 0 
0 0 0 0 0 0 1.40535e-10 0 0 
8.82531e-13 7.97975e-11 7.60774e-11 0 0 0 0 0 0 
0 0 0 0 0 0 0 2.13704e-12 0 