# vtk DataFile Version 5.1
vtk output
ASCII
DATASET STRUCTURED_POINTS
DIMENSIONS 250 250 1
SPACING 1 1 1
ORIGIN 0 0 0
POINT_DATA 62500
FIELD FieldData 6
feature_1 1 62500 float
0 0 0 0 0 0 0 0 0 
0 0 0 0 0 0 0 0 0 
0 0 0 0 0 0 0 0 0 
0 0 0 0 0 0 0 0 0 
0 0 0 0 0 0 0 0 0 
0 0 0 0 0 0 0 0 0 
3.60928e-13 0 0 0 0 0 0 0 0 
0 0 0 0 0 0 0 0 0 
0 0 0 0 0 0 0 0 0 
0 0 0 0 0 0 0 0 0 
0 0 0 0 0 0 0 0 0 
0 0 0 0 0 0 0 0 0 
0 0 5.32539e-13 0 0 0 1.60531e-13 0 0 
0 0 0 0 0 0 0 0 0 
0 0 0 0 0 0 0 0 0 
0 0 0 0 0 0 0 0 0 
0 0 0 0 0 0 0 0 0 
0 0 0 0 0 0 0 0 0 
0 0 0 0 2.67273e-13 0 0 0 0 
0 0 0 0 0 0 0 0 0 
0 0 0 0 0 0 0 0 0 
0 0 0 0 0 0 0 0 0 
0 0 0 0 0 0 0 0 0 
0 0 0 0 0 0 0 0 0 
0 0 0 0 0 0 0 0 0 
0 0 0 0 0 0 0 0 0 
0 0 0 0 0 0 0 0 0 
0 0 0 8.61743e-13 0 0 0 0 0 
0 0 0 0 0 0 0 0 0 
0 0 0 0 0 0 0 0 0 
0 0 0 0 0 0 0 0 0 
0 0 0 0 0 0 0 0 0 
0 0 0 0 0 0 0 0 0 
0 0 0 0 0 0 0 0 0 
0 0 0 0 0 0 0 0 0 
0 0 0 0 1.21317e-12 0 0 0 0 
0 0 0 0 0 0 0 0 0 
0 0 0 0 0 0 0 0 0 
0 0 0 0 0 0 0 0 0 
0 0 0 0 0 0 0 0 0 
0 5.53219e-13 0 0 0 0 0 0 0 
0 0 0 0 0 0 0 0 0 
0 0 0 0 0 0 0 0 0 
0 0 0 0 0 0 0 0 0 
0 0 0 2.04382e-12 0 0 0 0 0 
0 0 0 0 0 0 0 0 0 
0 0 0 0 0 0 0 0 0 
0 0 0 0 0 0 0 0 0 
0 0 0 0 0 0 0 0 0 
0 0 0 0 0 0 0 0 0 
0 0 0 0 0 0 0 0 0 
0 0 0 0 0 0 0 0 0 
0 0 0 0 0 0 0 0 0 
0 0 0 0 0 0 0 0 0 
0 0 0 0 0 0 0 0 0 
0 0 0 0 0 0 0 0 0 
0 0 0 0 0 0 0 0 0 
0 0 0 0 0 0 0 0 0 
0 0 0 0 0 0 0 0 0 
0 0 0 0 0 0 0 0 0 
0 0 0 0 0 0 0 0 0 
0 0 0 0 0 0 0 0 0 
0 0 0 0 0 0 0 0 0 
0 0 0 0 0 0 0 0 0 
0 0 0 0 0 0 0 0 0 
0 0 0 0 0 0 0 0 0 
0 0 0 0 0 0 0 0 0 
0 0 0 0 0 0 0 0 0 
0 0 0 0 0 0 0 0 0 
0 0 0 0 0 0 0 0 0 
0 0 0 0 0 0 0 0 0 
0 0 0 0 0 0 0 0 0 
0 0 0 0 0 0 0 0 0 
0 0 0 0 0 0 0 0 0 
0 0 0 6.36576e-13 0 0 0 0 0 
0 0 0 0 0 0 0 0 0 
0 0 0 0 0 0 0 0 0 
0 0 0 0 0 0 0 0 0 
0 0 0 0 0 0 0 0 0 
0 0 0 0 0 0 0 0 0 
0 0 0 0 0 0 0 0 0 
0 0 0 0 0 0 0 0 0 
0 0 0 0 0 0 0 0 0 
0 0 0 0 0 0 0 0 0 
0 0 0 0 0 0 0 0 0 
0 0 0 0 0 0 0 0 0 
0 0 0 0 0 0 0 0 0 
0 0 0 0 0 0 0 0 0 
0 0 0 0 0 0 0 0 0 
0 0 0 0 0 0 0 0 0 
0 0 0 0 0 0 0 0 0 
0 0 0 0 0 0 0 0 0 
0 0 0 2.16934e-12 0 0 0 0 0 
0 0 0 0 0 0 0 0 0 
2.38178e-15 0 0 0 0 0 0 0 0 
0 0 0 0 0 0 0 0 0 
0 0 0 0 0 0 0 0 0 
0 0 0 0 0 0 0 0 0 
0 0 0 0 0 0 0 0 0 
0 0 0 0 0 0 0 0 0 
0 0 0 0 0 0 0 0 0 
0 0 0 0 0 0 0 0 0 
0 0 0 0 0 0 0 0 0 
0 0 0 0 0 0 0 0 0 
0 0 0 0 0 0 0 0 0 
0 0 0 0 0 0 0 0 0 
0 0 0 0 0 0 0 0 0 
0 0 0 0 0 0 0 0 0 
0 0 1.13393e-13 0 0 0 0 0 0 
0 0 0 0 0 0 0 0 0 
0 0 0 0 0 0 0 0 0 
0 0 0 0 0 0 0 0 0 
0 0 0 0 0 0 0 0 0 
0 0 0 0 0 0 0 0 0 
0 0 0 0 0 0 0 0 0 
0 0 0 0 0 0 0 0 0 
0 0 0 0 0 0 0 0 0 
0 0 0 0 0 1.36229e-12 0 0 0 
0 0 0 0 0 0 0 0 0 
0 0 0 0 0 0 0 0 0 
0 0 0 0 0 0 0 0 0 
0 0 0 0 0 0 0 0 0 
0 0 0 0 1.98151e-12 0 0 0 0 
0 0 0 7.51349e-13 0 0 0 0 0 
0 0 0 0 0 0 0 0 0 
0 0 0 0 0 0 0 0 0 
0 0 0 0 0 0 0 0 0 
0 0 0 0 0 0 0 0 0 
0 0 0 0 0 0 0 3.36949e-12 0 
0 0 0 0 0 0 0 0 0 
0 0 0 0 0 0 0 0 0 
0 0 0 0 0 0 0 0 0 
0 0 0 0 0 0 0 0 0 
0 0 0 0 0 0 0 0 0 
0 0 0 0 0 0 0 0 0 
0 0 0 0 0 0 2.34082e-13 0 0 
0 0 0 0 0 0 0 0 0 
0 0 0 0 0 0 0 0 0 
0 0 0 0 0 0 0 0 0 
0 0 0 0 0 0 0 0 0 
0 0 0 0 0 0 0 0 0 
0 0 0 0 0 0 0 1.01574e-12 0 
0 0 0 0 0 0 0 0 0 
0 0 0 0 0 0 0 0 0 
0 0 0 0 0 0 0 0 0 
0 0 0 0 0 0 0 0 0 
0 0 0 0 0 0 0 0 0 
0 0 0 0 0 0 0 0 0 
0 0 0 0 0 0 0 0 0 
0 0 0 0 0 0 0 0 0 
0 0 0 0 0 0 0 0 0 
0 0 0 0 0 0 0 0 0 
0 0 0 0 0 0 0 0 0 
0 0 0 0 0 0 0 0 0 
0 0 0 0 0 0 0 0 0 
0 0 0 0 0 0 0 0 0 
0 0 0 0 0 0 0 0 0 
0 0 0 0 0 0 0 0 0 
0 0 0 0 0 0 0 0 0 
0 0 0 0 0 0 0 0 0 
0 0 0 0 0 2.57504e-13 0 0 0 
0 0 0 0 0 0 0 0 0 
0 0 0 0 0 0 0 0 0 
0 0 0 0 0 0 0 0 0 
0 0 0 0 0 0 0 0 0 
0 0 0 0 0 0 0 0 0 
0 0 0 0 0 0 0 0 0 
0 0 0 0 0 0 0 0 0 
0 0 0 0 0 0 0 0 0 
0 0 0 0 0 0 0 0 0 
0 0 0 0 0 0 0 0 0 
0 0 0 0 0 0 0 0 0 
0 0 0 0 0 0 0 0 0 
0 0 0 0 0 0 0 0 0 
0 0 0 0 0 0 0 0 0 
0 0 0 0 0 0 0 0 0 
0 0 0 0 0 0 0 0 0 
0 0 0 0 0 0 0 0 0 
0 0 0 0 0 0 3.34058e-13 0 0 
0 0 0 0 0 0 0 0 0 
0 0 0 2.35662e-14 0 0 0 0 0 
0 0 0 0 0 0 0 0 0 
0 0 0 0 0 0 0 0 0 
0 0 0 0 0 0 0 0 0 
0 0 0 0 0 0 0 0 0 
0 0 0 0 0 0 0 0 0 
0 0 0 0 0 0 0 0 0 
0 0 0 0 0 5.05049e-13 0 0 0 
0 0 0 0 0 0 0 0 0 
0 0 0 0 0 0 0 0 0 
0 0 0 0 0 0 0 0 0 
0 0 0 0 0 0 0 0 0 
0 0 0 0 0 0 0 0 0 
0 0 0 0 0 0 0 0 0 
0 0 0 0 0 0 0 0 0 
0 0 0 0 0 0 0 0 0 
0 0 0 0 0 0 0 0 0 
0 0 0 0 0 0 0 0 0 
0 0 0 0 0 0 0 0 0 
0 0 0 0 0 0 0 0 0 
0 0 0 0 0 0 0 0 0 
0 0 0 0 0 0 0 0 0 
0 0 0 0 0 0 0 0 0 
0 0 0 0 0 0 0 0 0 
0 0 0 0 0 0 0 0 0 
0 0 0 0 0 0 0 0 0 
0 0 0 0 0 0 0 0 0 
0 0 0 0 0 0 0 0 0 
0 3.97903e-13 0 0 0 0 0 0 0 
0 0 0 0 0 0 0 0 0 
0 0 0 0 0 0 0 0 0 
0 0 0 0 0 0 0 0 0 
0 0 0 0 0 0 0 0 0 
0 0 0 0 0 0 0 0 0 
0 0 0 0 0 0 0 0 0 
0 0 0 0 0 0 0 7.41384e-13 0 
0 0 0 0 0 0 0 0 0 
0 0 0 0 0 0 0 0 0 
0 0 0 0 0 0 0 0 0 
0 0 0 0 0 0 0 0 0 
0 0 0 0 0 0 0 0 0 
0 0 0 0 0 0 0 0 0 
0 0 0 0 0 0 0 0 0 
0 0 0 0 0 0 0 0 0 
0 0 0 0 0 0 0 0 0 
0 0 0 0 0 0 0 0 0 
0 0 0 0 0 0 0 0 0 
0 0 0 0 0 0 0 0 0 
0 0 0 0 0 0 0 0 0 
0 0 0 0 0 0 0 0 0 
0 0 0 0 0 0 0 0 0 
0 0 0 0 0 0 1.90103e-12 0 0 
0 0 0 0 0 0 0 0 0 
0 0 0 0 0 0 0 0 0 
0 0 0 0 0 0 0 0 0 
0 0 0 0 0 0 0 0 0 
0 0 0 0 0 0 0 0 0 
0 0 0 0 0 0 0 0 0 
0 0 0 0 0 0 0 0 0 
0 0 0 0 0 0 0 0 0 
0 0 0 0 0 0 0 0 0 
0 0 0 0 1.16815e-12 0 0 0 0 
0 0 0 0 0 0 0 0 2.14148e-13 
0 0 0 0 0 0 0 0 0 
0 0 0 0 0 0 0 0 0 
0 0 0 0 0 0 0 0 0 
0 0 0 0 0 0 0 0 0 
0 0 0 0 0 0 0 0 0 
0 0 0 0 0 0 0 0 0 
0 0 0 0 0 0 0 0 0 
0 0 0 0 0 0 0 0 0 
0 0 0 0 0 0 0 0 0 
0 0 0 0 0 0 0 0 0 
0 0 0 0 0 0 0 0 0 
0 0 0 0 0 0 0 0 0 
0 0 0 0 0 0 0 0 0 
0 0 0 0 0 0 0 0 0 
0 0 9.65642e-13 0 0 0 0 0 0 
0 0 0 0 0 0 0 0 0 
0 0 0 0 0 0 0 0 0 
0 0 0 0 0 0 0 0 0 
0 0 0 0 0 0 0 0 0 
0 0 0 0 0 0 0 0 0 
0 0 0 0 0 0 0 0 0 
0 0 0 0 0 0 0 0 0 
0 0 0 0 0 0 0 0 0 
0 0 0 0 0 0 0 0 0 
0 0 0 0 0 0 0 0 0 
0 0 0 0 0 0 0 0 0 
0 0 0 0 0 0 0 0 0 
0 0 0 0 0 0 0 0 0 
0 0 0 0 0 0 0 0 0 
0 0 0 0 0 0 0 0 1.66881e-12 
0 0 0 0 0 0 0 0 0 
0 0 0 0 0 0 0 0 0 
0 0 0 0 0 0 0 0 0 
0 0 0 0 0 0 0 0 0 
0 0 0 0 0 0 0 0 0 
0 0 0 0 0 0 0 0 0 
0 0 0 0 0 0 0 0 0 
0 0 0 0 0 0 0 0 0 
0 0 0 0 0 0 0 0 0 
0 0 0 0 0 0 0 0 0 
0 0 0 0 0 0 0 0 0 
0 0 0 0 0 0 0 0 0 
0 0 0 0 0 0 0 0 0 
0 0 0 0 0 0 0 0 0 
0 0 2.498e-16 0 0 0 0 0 0 
0 0 0 0 0 0 0 0 0 
0 0 0 0 0 0 0 0 0 
0 0 0 0 0 0 0 0 0 
0 0 0 0 0 0 0 0 0 
0 0 0 0 0 0 0 0 0 
0 0 0 0 0 0 0 0 0 
0 0 0 0 0 0 0 0 0 
0 0 0 0 0 0 0 0 0 
0 0 0 0 0 0 0 0 0 
0 0 0 0 0 0 0 0 0 
0 0 0 0 0 0 0 0 0 
0 0 0 0 0 0 0 0 0 
0 0 0 0 0 0 0 0 0 
0 0 0 0 0 0 0 0 0 
0 0 0 0 0 0 0 0 0 
0 0 0 0 0 0 0 0 0 
0 0 0 0 0 0 0 0 0 
0 0 0 0 0 0 0 0 0 
0 0 0 0 0 0 0 0 0 
0 0 0 0 0 0 0 0 0 
0 0 0 0 0 0 0 0 0 
0 0 0 0 0 0 0 0 0 
0 0 0 2.27571e-13 0 0 0 0 0 
0 0 0 0 0 0 0 0 0 
0 0 0 0 0 0 0 0 0 
0 0 0 0 0 0 0 0 0 
0 0 0 0 0 0 0 0 0 
0 0 0 0 0 0 0 0 0 
0 0 0 0 0 0 0 0 0 
0 0 0 0 0 0 0 0 0 
0 0 0 0 0 0 0 0 0 
0 0 0 0 0 0 0 0 0 
0 0 0 0 0 0 0 0 0 
0 0 0 0 0 0 0 0 0 
0 0 0 0 0 0 0 0 0 
0 0 0 0 0 0 0 0 0 
0 0 0 0 0 0 0 0 0 
0 0 0 0 0 0 0 0 0 
0 0 0 0 0 0 0 0 0 
0 0 0 0 0 0 0 0 0 
1.47105e-12 0 0 0 0 0 0 0 0 
0 0 0 0 0 0 0 0 2.0152e-12 
0 0 0 0 0 0 0 0 0 
0 0 0 0 0 0 0 0 0 
0 0 0 0 0 0 0 0 0 
0 0 0 0 0 0 0 0 0 
0 0 0 0 0 0 0 0 0 
0 0 0 0 0 0 0 0 0 
0 0 0 0 0 1.90629e-12 0 0 0 
0 0 0 0 0 0 0 0 0 
0 0 0 0 0 0 0 0 0 
0 9.04971e-13 0 0 0 0 0 0 0 
0 0 0 0 0 0 0 3.83291e-13 0 
0 0 0 0 0 0 0 0 0 
0 0 0 0 0 0 0 0 0 
0 0 0 0 0 0 0 0 0 
0 0 0 0 0 0 0 0 0 
0 0 0 0 0 0 0 0 0 
0 0 9.0452e-14 0 0 0 0 0 0 
0 0 0 0 0 0 0 0 0 
0 0 0 0 0 0 0 0 0 
0 0 0 0 0 0 0 0 0 
0 0 0 0 0 0 0 0 0 
0 0 0 0 0 0 0 0 0 
0 0 0 0 0 0 0 0 0 
0 0 0 0 0 0 0 0 0 
0 0 0 0 0 0 0 0 0 
0 0 0 0 0 0 0 0 0 
0 0 0 0 0 0 0 0 0 
0 0 0 0 0 0 0 0 0 
0 0 0 0 0 0 0 0 0 
0 0 0 0 0 0 0 0 0 
0 0 0 0 0 0 0 0 0 
0 0 0 0 0 0 0 0 0 
0 0 0 0 0 0 0 0 0 
0 0 0 0 0 0 0 0 0 
0 0 0 0 0 0 0 0 0 
0 0 0 0 0 0 0 0 0 
0 0 0 0 0 0 0 0 0 
0 0 0 0 0 0 0 0 0 
0 0 0 0 0 0 0 0 0 
0 0 0 0 0 0 0 0 0 
0 0 0 0 0 0 0 0 0 
0 0 0 0 0 0 0 0 0 
0 0 0 0 0 0 0 0 0 
0 0 0 0 0 0 0 0 0 
0 0 0 0 0 0 0 0 0 
0 0 0 0 0 0 0 0 0 
0 0 0 0 0 0 0 0 0 
0 0 0 0 0 0 0 0 0 
0 0 0 0 0 0 0 0 0 
4.16699e-12 0 0 0 0 0 0 0 0 
0 0 0 0 0 4.46391e-13 0 0 0 
0 0 0 3.98052e-13 0 0 0 0 0 
0 0 0 0 0 0 0 0 0 
0 0 0 0 0 0 0 0 0 
0 0 0 0 0 0 0 0 0 
0 0 0 0 0 0 0 0 0 
0 0 0 0 0 0 0 0 0 
0 0 0 0 0 0 0 0 0 
0 0 0 0 0 0 0 0 0 
0 0 0 0 0 0 0 0 0 
0 0 0 0 0 0 0 0 0 
0 0 0 0 0 0 0 0 3.76578e-12 
0 0 1.89916e-13 0 0 0 0 0 0 
0 0 0 0 0 0 0 0 0 
0 0 0 0 0 0 0 0 0 
0 0 0 0 0 0 0 0 0 
0 0 0 0 0 0 0 0 0 
0 0 0 0 0 0 0 0 0 
0 0 0 0 0 0 0 0 0 
0 0 0 0 0 0 0 0 0 
0 1.22716e-13 0 0 0 0 0 0 0 
0 0 0 0 0 0 0 0 0 
0 0 0 0 0 0 0 0 0 
0 0 0 0 0 0 0 0 0 
0 0 0 0 0 0 0 0 0 
0 0 0 0 0 0 0 0 0 
0 0 0 0 0 0 0 0 0 
0 0 0 0 0 0 0 0 0 
0 0 0 0 0 0 0 0 0 
0 0 0 0 0 0 0 0 0 
0 0 0 0 0 0 0 0 0 
0 0 0 0 0 0 0 0 0 
0 0 0 0 0 0 0 0 0 
0 0 0 0 0 0 0 0 0 
0 0 0 0 0 0 0 0 0 
0 0 0 0 0 0 0 0 0 
0 0 0 0 0 0 0 0 0 
0 0 0 0 0 0 0 0 0 
0 0 0 0 0 0 0 0 0 
0 0 0 0 0 0 0 0 0 
0 0 0 0 0 0 0 0 0 
0 0 0 0 0 0 0 0 0 
0 0 0 0 0 0 0 0 0 
0 0 0 0 0 0 0 0 0 
0 1.33241e-12 0 0 3.71256e-13 0 0 0 0 
0 0 0 0 0 0 0 0 0 
0 0 0 0 0 0 0 0 0 
0 0 0 0 0 0 0 0 0 
3.65749e-12 0 0 0 0 0 0 0 0 
0 0 0 0 0 0 0 0 0 
0 0 0 0 0 0 0 0 0 
0 0 0 0 0 0 0 0 0 
0 0 0 0 0 0 0 0 0 
0 0 0 0 0 0 0 0 0 
0 0 0 0 0 0 0 0 0 
0 0 0 0 0 0 0 0 0 
0 0 0 0 0 0 0 0 0 
0 0 0 0 0 0 0 0 0 
0 0 0 0 0 0 0 0 0 
0 0 0 0 0 0 0 0 0 
0 0 0 0 0 0 0 0 0 
0 0 2.58238e-12 0 0 0 0 0 0 
0 0 0 0 0 0 0 0 0 
0 0 0 0 0 0 0 0 0 
0 0 0 0 0 0 0 0 0 
0 0 0 0 0 0 0 0 0 
0 0 0 0 0 0 0 0 0 
0 0 0 4.44639e-13 0 0 0 0 0 
0 0 0 0 0 0 0 0 0 
0 0 0 0 0 0 0 0 0 
0 0 0 0 0 0 0 0 0 
0 0 0 0 0 0 0 0 0 
0 0 0 0 0 0 0 0 0 
0 0 0 0 0 0 0 0 0 
0 0 0 0 0 0 0 0 0 
0 0 0 0 0 0 0 0 0 
0 0 0 0 0 0 0 0 0 
0 0 0 0 0 0 0 0 0 
0 1.65762e-12 0 0 0 0 0 0 0 
0 0 0 0 0 0 0 0 0 
0 0 0 0 6.13396e-12 0 0 0 0 
0 0 0 0 0 0 0 0 0 
0 0 0 0 0 0 0 0 0 
0 0 0 0 0 0 0 0 0 
0 0 0 0 0 0 0 0 0 
0 0 0 0 0 0 0 0 0 
0 0 0 0 0 0 0 0 0 
0 0 0 0 0 0 0 0 0 
0 0 0 0 0 0 0 0 0 
0 0 0 0 0 0 0 0 0 
0 0 0 0 0 0 0 0 0 
0 0 0 0 0 0 0 0 0 
0 0 0 0 0 0 0 0 0 
0 0 0 0 0 0 0 0 0 
0 0 0 0 0 0 0 0 0 
0 0 0 0 0 0 0 0 0 
0 0 0 0 0 0 0 0 0 
0 0 0 0 0 0 0 0 0 
0 0 0 0 0 0 0 0 0 
0 0 4.78279e-13 0 0 0 0 0 0 
0 4.10013e-12 0 0 0 0 0 0 0 
0 0 0 0 0 0 0 9.6932e-14 1.63846e-13 
0 0 0 0 0 0 0 0 0 
0 0 0 0 0 0 0 0 0 
0 0 0 0 0 0 0 0 0 
0 0 0 0 0 0 0 0 0 
0 0 0 0 0 0 0 0 0 
0 0 0 0 0 0 0 0 0 
0 0 0 0 0 0 0 0 0 
0 0 0 1.68142e-12 0 0 0 0 0 
0 0 0 0 0 0 0 0 0 
0 0 0 0 0 0 0 0 0 
0 0 0 0 0 0 0 0 0 
0 0 0 0 0 0 0 0 2.89137e-13 
0 0 0 0 0 0 0 0 0 
0 0 0 0 0 0 0 0 0 
0 2.71931e-12 0 0 0 0 0 0 0 
0 0 0 0 0 0 0 0 0 
0 0 0 0 0 0 0 0 0 
0 0 0 0 0 0 0 0 0 
0 0 0 0 0 0 0 0 0 
0 0 0 0 0 0 0 0 0 
0 0 0 0 0 0 0 0 0 
0 0 0 0 0 0 0 0 0 
0 0 0 0 0 0 0 0 0 
0 0 0 0 0 0 0 0 0 
0 0 0 0 1.79154e-12 0 0 0 0 
0 0 0 0 0 0 0 0 5.36403e-12 
0 0 0 0 0 0 0 0 0 
0 0 0 0 0 0 0 0 0 
0 0 0 4.15167e-12 0 0 0 0 0 
0 0 0 0 0 0 0 0 0 
0 0 0 1.21891e-11 0 0 0 0 0 
0 0 0 0 0 0 0 0 0 
0 0 0 0 0 0 0 0 0 
0 0 0 0 0 0 0 0 0 
0 0 0 0 0 0 0 0 0 
0 0 0 0 0 0 0 0 0 
0 0 0 0 0 0 0 0 0 
0 0 0 0 0 0 0 0 0 
0 0 0 0 0 0 0 0 0 
0 0 0 0 0 0 0 0 0 
0 0 0 0 0 0 0 0 0 
0 0 0 0 0 0 0 0 0 
0 0 0 0 0 0 0 0 0 
0 0 0 0 0 0 0 0 0 
0 0 0 0 0 0 0 0 0 
0 0 0 0 0 0 0 0 0 
0 0 0 0 0 0 0 0 0 
0 0 0 0 0 0 0 0 0 
0 0 0 0 0 0 0 0 0 
0 0 0 0 0 0 0 0 0 
0 0 0 0 0 0 0 0 0 
0 0 0 0 0 0 0 0 0 
0 0 0 0 0 1.14849e-12 0 0 0 
0 0 0 0 0 0 0 0 0 
0 3.09066e-12 0 0 0 0 0 0 0 
0 0 0 0 0 0 0 0 7.81153e-13 
0 0 0 0 4.56787e-13 0 0 0 0 
0 0 0 0 0 0 0 0 0 
0 0 0 0 0 0 0 0 0 
0 0 0 0 0 0 0 0 0 
0 0 0 0 0 0 0 0 0 
0 0 0 0 0 0 0 0 0 
0 0 0 0 0 0 0 0 0 
0 0 0 0 0 0 0 0 0 
0 0 0 0 0 0 0 0 0 
0 0 0 0 0 0 0 7.63549e-13 0 
0 0 0 0 0 0 0 0 0 
0 0 0 0 0 0 0 0 0 
0 0 0 0 0 0 0 0 0 
0 0 0 0 0 0 0 0 0 
0 0 0 0 0 0 0 0 0 
0 0 0 0 0 0 0 0 0 
0 0 0 0 0 0 0 0 0 
0 0 0 0 0 0 0 0 0 
0 0 0 0 0 0 0 0 0 
0 0 0 0 0 0 0 0 0 
0 0 0 0 0 0 0 0 0 
0 0 0 0 0 0 0 0 0 
0 0 0 0 0 0 0 0 0 
0 0 0 0 0 0 0 2.64203e-12 0 
0 0 0 0 0 0 0 0 0 
1.9857e-11 0 0 0 2.70328e-11 7.63429e-12 0 0 0 
0 0 0 0 0 0 0 0 0 
0 2.28068e-11 0 0 0 0 0 0 1.63276e-11 
0 0 0 0 0 0 0 0 0 
0 0 0 0 0 0 0 0 0 
0 0 0 0 0 0 0 0 0 
0 0 0 0 0 0 0 0 0 
0 0 0 0 0 0 0 0 2.30611e-12 
0 0 0 0 0 0 0 0 0 
0 0 0 0 0 0 0 0 0 
0 0 0 0 0 0 8.73114e-13 0 0 
0 0 0 0 0 0 0 0 0 
0 0 0 0 0 0 0 0 0 
0 0 0 0 0 0 0 0 0 
0 0 0 0 0 0 0 0 0 
0 0 0 0 0 3.58825e-13 0 0 0 
0 0 0 0 0 0 0 0 0 
0 0 5.84483e-13 0 0 0 0 0 0 
0 0 0 0 0 0 0 0 0 
0 0 0 0 0 0 0 0 0 
0 0 0 0 0 0 0 0 0 
0 0 0 0 0 0 0 0 0 
0 0 0 0 0 0 0 0 0 
0 0 0 0 0 0 0 0 0 
0 0 0 0 0 0 0 0 0 
0 0 0 0 0 0 0 0 0 
0 0 9.46594e-12 0 0 0 0 0 0 
0 0 0 0 0 1.82179e-11 1.18525e-11 0 0 
0 0 0 0 0 0 0 0 0 
0 0 1.16231e-12 0 0 0 0 0 0 
0 0 0 0 0 0 0 0 0 
7.22528e-12 0 0 0 0 1.85984e-11 0 0 0 
0 0 0 0 0 6.32868e-12 0 0 0 
0 0 0 0 0 0 0 0 0 
0 0 0 0 0 0 0 0 0 
0 0 0 0 0 0 0 0 0 
0 0 0 0 0 1.46104e-11 0 1.75059e-11 0 
0 0 0 0 0 0 0 0 0 
0 0 0 0 0 0 0 0 0 
0 0 0 0 0 0 0 0 0 
0 0 0 0 0 0 0 0 0 
0 0 0 0 0 0 0 0 0 
0 0 0 0 0 0 0 0 0 
0 0 0 0 0 0 0 6.45984e-12 0 
0 0 0 0 0 0 0 0 0 
0 0 0 0 0 0 0 0 0 
0 0 0 0 0 0 0 0 0 
0 0 0 0 0 0 0 0 0 
0 0 0 0 0 0 0 0 0 
0 0 2.48464e-13 0 0 0 0 0 0 
0 0 0 0 0 0 0 0 0 
0 0 0 0 0 0 0 0 0 
0 0 0 0 0 0 0 0 0 
0 0 0 0 0 0 0 0 0 
0 0 0 0 0 0 0 0 0 
0 0 0 0 0 1.47634e-11 0 2.82733e-11 0 
0 0 0 0 0 0 0 0 0 
0 0 0 0 2.59197e-11 0 3.38357e-11 0 0 
6.24021e-12 0 0 0 0 0 0 0 0 
3.19498e-11 0 0 1.09244e-12 0 0 0 0 0 
0 2.23533e-11 2.01039e-11 0 0 0 0 0 0 
0 0 0 0 0 0 0 0 0 
0 0 0 0 5.27186e-12 0 0 0 0 
0 0 0 0 0 0 3.58659e-12 0 0 
0 0 0 0 0 0 0 0 0 
0 0 0 0 0 0 0 0 0 
0 0 0 0 0 0 0 0 0 
0 0 0 0 0 0 0 0 0 
0 0 0 1.26494e-12 0 0 0 0 0 
0 0 0 0 0 0 0 0 0 
0 0 0 0 0 0 0 0 0 
0 0 3.70969e-12 0 0 0 0 0 0 
0 0 0 0 0 0 0 0 0 
0 0 0 0 0 0 0 0 0 
6.88907e-13 0 0 0 0 0 0 0 0 
0 0 0 0 0 1.38063e-12 0 0 0 
0 0 0 0 0 0 0 0 0 
0 0 0 0 0 0 0 0 0 
0 0 0 0 3.5506e-12 0 0 0 0 
0 0 0 0 0 0 0 0 0 
0 0 0 0 0 0 0 0 0 
0 0 7.94805e-12 2.49674e-11 0 0 0 1.04122e-11 0 
0 0 0 0 0 0 0 0 0 
0 2.76087e-11 0 5.40147e-12 0 0 0 0 0 
0 0 5.17425e-12 0 0 0 0 0 0 
0 0 0 0 0 0 0 0 0 
0 0 0 0 0 0 0 1.0608e-11 0 
0 0 0 0 0 0 0 0 0 
0 3.60984e-11 0 0 0 0 0 0 0 
8.79001e-12 0 0 0 0 0 0 0 0 
0 0 0 0 0 0 0 0 0 
1.0393e-11 0 0 0 0 0 0 7.21495e-12 0 
0 0 0 0 0 0 9.96276e-12 0 0 
0 0 0 0 0 0 0 0 0 
0 0 0 0 0 0 0 0 0 
0 0 0 0 0 0 0 0 0 
0 0 0 0 0 0 0 0 0 
0 0 0 0 0 0 0 0 0 
0 0 0 0 0 0 0 0 7.91005e-12 
0 0 0 1.20851e-11 0 0 0 0 0 
0 0 0 0 0 0 0 0 0 
1.07049e-12 0 0 0 0 0 0 0 0 
0 0 0 0 0 0 0 0 0 
0 0 0 0 0 0 0 0 0 
0 0 0 0 0 0 0 0 0 
0 0 0 0 0 0 0 0 0 
0 0 0 0 0 0 0 0 0 
0 0 0 0 0 0 0 0 0 
0 0 0 0 0 0 0 0 0 
0 0 0 0 2.0795e-12 0 0 0 0 
0 0 1.34984e-11 1.45288e-11 0 9.87866e-12 0 0 0 
4.05764e-11 0 3.6301e-11 0 0 0 0 0 0 
2.51078e-11 0 0 0 0 0 0 0 0 
0 2.78742e-11 0 0 0 0 0 5.86214e-11 0 
0 0 0 0 0 0 0 0 0 
0 0 0 0 0 0 0 0 0 
3.6951e-11 0 0 9.32851e-12 0 1.19325e-11 0 0 0 
0 0 0 0 0 0 2.60677e-12 0 0 
0 0 0 0 0 0 0 0 0 
3.24628e-11 0 0 0 0 0 0 0 0 
0 0 0 0 0 0 0 0 0 
0 0 0 1.2661e-11 0 0 1.12778e-11 0 0 
0 0 0 0 0 0 0 0 0 
0 0 0 0 0 0 0 0 0 
0 0 0 0 0 0 0 0 0 
0 0 0 0 0 0 0 0 0 
0 0 0 4.02234e-13 0 0 0 0 0 
0 0 0 0 0 0 0 0 0 
7.28797e-12 0 0 0 0 0 0 0 0 
0 0 0 0 0 0 0 0 0 
0 0 0 0 0 0 0 0 0 
0 0 0 0 0 0 0 0 0 
0 0 0 0 0 0 0 0 0 
7.78321e-13 0 0 0 0 0 0 0 0 
0 0 0 0 0 0 0 0 0 
0 0 0 0 0 0 4.71911e-12 0 0 
3.38383e-11 0 4.15655e-11 0 0 0 0 0 0 
0 0 0 0 0 0 0 0 0 
0 0 0 0 2.32996e-11 0 3.09271e-11 0 0 
2.53115e-11 2.95049e-11 0 0 0 4.58711e-11 0 0 0 
0 0 0 0 0 0 0 0 0 
0 0 0 2.48777e-11 7.06455e-11 0 0 2.77826e-11 0 
5.08392e-11 4.02729e-13 0 0 0 0 0 0 0 
0 3.29294e-11 0 5.17384e-11 0 0 0 0 0 
0 0 0 0 1.79617e-11 0 0 0 1.78216e-11 
0 0 0 0 0 0 0 0 0 
0 0 0 0 0 0 0 0 0 
0 0 0 5.08137e-11 2.20376e-11 0 0 0 0 
0 0 0 0 1.38312e-11 0 0 0 0 
0 1.75821e-11 0 0 0 0 0 0 0 
0 0 1.58784e-11 0 0 0 0 0 0 
3.24769e-12 0 0 0 0 0 0 0 0 
7.25966e-13 0 0 0 0 0 0 0 0 
0 0 0 0 0 0 0 0 0 
0 0 0 0 0 0 0 0 2.84164e-11 
0 0 0 0 0 0 0 0 0 
0 0 0 0 0 0 0 0 0 
0 0 0 0 0 0 0 0 0 
0 0 0 0 0 0 0 0 0 
0 0 0 0 0 0 0 0 0 
0 0 0 0 0 0 0 0 0 
0 0 0 0 0 0 0 0 0 
0 0 0 0 0 0 0 0 0 
0 0 0 1.24733e-12 0 0 0 0 0 
3.23476e-11 0 0 0 4.85232e-11 0 0 0 0 
0 0 0 0 0 0 0 0 0 
0 0 1.25525e-11 1.88763e-11 0 0 0 0 0 
0 0 0 0 1.74038e-11 0 0 0 0 
0 0 0 0 2.79029e-13 7.96764e-11 0 0 5.75016e-12 
2.34649e-11 0 6.4515e-11 1.08223e-10 0 0 0 0 0 
0 0 0 0 0 0 8.07191e-13 0 0 
4.21373e-11 4.61339e-11 0 0 6.02673e-11 0 0 0 0 
3.87641e-11 0 0 0 0 0 0 0 0 
0 0 0 0 2.0894e-11 0 0 0 3.79533e-12 
0 9.30171e-12 0 0 0 0 0 0 0 
0 0 0 0 4.82076e-11 0 0 1.05317e-11 0 
9.39361e-12 0 0 2.22397e-11 0 0 0 0 0 
0 0 0 0 0 0 0 0 0 
0 1.55483e-11 3.41796e-12 0 0 0 0 0 0 
0 2.76317e-11 0 2.36929e-12 0 0 0 0 0 
0 0 0 0 0 0 0 0 0 
0 0 0 0 0 0 0 6.68624e-12 0 
0 1.2224e-11 0 0 0 0 0 0 0 
0 0 0 0 5.78952e-12 0 0 0 0 
0 0 0 0 0 0 0 0 0 
0 0 0 0 0 0 0 0 0 
0 0 0 0 0 0 0 0 0 
0 0 2.15826e-12 0 0 0 0 0 0 
0 0 0 0 0 0 0 0 0 
0 0 0 0 0 0 0 0 0 
0 0 0 0 0 1.41055e-11 0 0 0 
0 4.6136e-12 0 0 1.02616e-11 0 0 0 0 
0 0 4.56065e-11 0 0 0 0 4.57062e-11 0 
0 0 0 0 0 1.40855e-11 0 0 0 
0 0 0 0 8.56328e-11 0 2.04273e-10 0 0 
0 0 4.58508e-11 3.63154e-11 1.6963e-11 0 0 3.05974e-11 0 
0 0 0 0 0 7.54152e-13 0 0 8.12364e-11 
0 0 0 0 0 0 7.72469e-11 0 0 
0 0 0 0 7.53566e-11 0 0 5.70442e-11 0 
0 0 0 0 0 2.85088e-11 0 0 0 
2.79184e-11 0 0 0 0 0 2.0855e-11 0 0 
0 0 0 0 0 0 0 0 5.95834e-11 
0 0 0 0 8.58082e-11 0 1.2831e-10 0 0 
0 3.17269e-11 0 0 0 0 2.77343e-11 0 0 
6.34543e-11 0 4.47325e-11 0 0 1.72429e-11 0 0 0 
0 0 0 0 1.2567e-11 0 0 3.71387e-11 0 
0 0 2.7421e-11 3.01349e-11 0 0 0 0 0 
0 0 0 0 0 0 0 0 0 
0 0 0 0 0 0 0 0 0 
0 0 0 0 0 0 0 0 0 
0 0 2.0326e-11 1.94066e-12 0 0 0 3.36043e-11 0 
0 0 0 0 0 0 0 0 0 
0 0 0 0 0 0 0 0 0 
0 0 0 0 0 0 0 0 0 
0 0 0 0 0 0 0 0 0 
0 0 0 0 0 0 0 0 0 
0 0 0 0 0 0 0 0 0 
0 0 0 0 0 0 0 3.78447e-11 0 
0 0 0 0 4.41725e-12 0 0 0 0 
0 4.13569e-12 0 0 0 4.3553e-11 0 0 0 
0 2.33012e-10 0 0 6.65386e-11 0 0 0 0 
4.7015e-12 0 0 1.10099e-11 0 0 0 0 0 
0 0 0 1.95027e-10 2.43297e-08 0 0 0 4.86242e-11 
0 3.05285e-11 0 0 0 0 0 0 0 
0 0 0 0 2.44207e-10 1.38892e-12 0 0 3.44149e-11 
0 7.96163e-12 0 2.23429e-11 0 0 0 0 6.3355e-11 
0 7.73982e-14 0 0 0 0 0 0 0 
0 0 0 0 0 3.82907e-13 0 0 3.50163e-11 
0 0 2.42408e-11 0 1.73982e-11 0 0 0 0 
0 0 5.25961e-11 0 0 0 0 0 0 
0 0 6.34398e-11 6.72788e-11 0 0 7.34622e-13 0 0 
1.32283e-10 1.34941e-11 0 0 0 9.30166e-11 5.25751e-11 0 0 
0 0 0 0 0 0 0 0 0 
0 1.93392e-11 0 0 0 0 7.43766e-13 0 0 
1.76411e-11 0 0 0 3.95816e-12 2.38911e-11 0 0 0 
0 0 0 0 0 0 0 0 0 
0 0 0 0 0 0 0 8.2659e-12 0 
0 0 1.1631e-11 0 0 3.83954e-11 0 0 0 
0 0 0 7.60378e-11 0 3.06605e-11 0 0 0 
0 0 0 0 0 0 6.71931e-12 0 0 
0 0 0 0 0 0 0 0 0 
0 0 0 0 0 0 0 0 0 
0 0 0 0 0 0 0 0 0 
0 0 0 0 0 0 0 0 0 
0 0 0 0 0 0 0 0 0 
2.14611e-13 0 0 0 1.65415e-11 1.12722e-11 0 0 6.72681e-11 
0 0 0 4.26597e-11 2.59132e-12 3.13337e-11 0 0 0 
0 0 0 0 0 0 0 0 0 
0 4.22838e-11 0 0 0 2.39635e-11 7.21061e-11 0 9.35396e-12 
0 1.38668e-11 0 0 1.08384e-11 2.21375e-11 4.73645e-11 0 0 
0 0 0 1.78874e-10 0 0 4.77257e-11 0 2.73778e-11 
0 0 0 0 0 0 0 2.02815e-11 4.83612e-11 
3.42414e-11 1.2722e-10 2.54786e-08 0 0 0 0 0 0 
2.66959e-11 0 0 0 2.64886e-08 0 0 1.33273e-10 0 
0 4.25015e-12 5.47156e-11 0 2.55431e-11 1.02166e-10 1.39052e-10 0 0 
0 0 0 5.53079e-11 2.79402e-11 1.46601e-11 0 0 0 
0 0 0 1.93608e-11 0 0 0 0 0 
1.26411e-11 0 1.06426e-10 5.9428e-11 0 0 0 0 0 
0 0 0 2.52267e-08 0 0 0 2.49098e-11 0 
9.03144e-11 0 0 1.7883e-10 5.72984e-11 0 0 6.54331e-11 7.54078e-11 
0 0 2.62896e-11 0 0 4.19763e-11 0 0 0 
0 4.69756e-11 0 0 2.1064e-11 0 0 0 0 
0 0 0 0 0 0 0 2.56738e-11 0 
0 0 0 0 0 0 0 0 0 
0 0 0 0 0 0 5.48662e-12 0 0 
0 0 0 0 0 0 0 0 4.56141e-12 
0 0 0 0 0 0 0 0 0 
0 0 7.16002e-12 0 0 0 0 0 0 
0 1.61855e-12 0 0 0 0 0 0 0 
0 0 0 0 0 0 0 0 0 
0 0 0 0 0 0 0 0 0 
0 0 0 0 0 0 0 1.25365e-12 0 
0 0 0 0 0 0 0 0 0 
1.49895e-11 0 0 0 0 8.06512e-11 8.77162e-11 0 0 
0 2.11402e-11 0 0 0 0 0 0 0 
0 0 0 0 0 1.07774e-11 0 0 0 
0 0 0 0 0 0 3.92473e-11 0 0 
0 0 0 0 1.40316e-11 1.55057e-12 7.51556e-11 8.33104e-11 0 
0 0 1.06033e-10 7.36111e-11 9.98204e-12 0 0 0 0 
0 0 0 0 0 4.33077e-11 0 0 0 
1.30161e-10 0 0 0 1.4334e-10 0 0 0 0 
3.08541e-11 0 1.74038e-10 0 0 0 0 5.31766e-13 5.99451e-11 
2.8103e-11 0 7.47861e-11 2.54837e-11 0 0 2.46577e-08 0 0 
3.38054e-11 0 0 0 0 9.28496e-12 0 0 0 
0 0 4.23189e-11 0 0 8.10043e-11 6.95152e-11 0 0 
9.86571e-11 7.76202e-11 2.56362e-11 0 7.42388e-11 0 0 0 1.30173e-10 
0 0 0 3.20038e-11 0 1.72254e-10 0 0 0 
1.0604e-10 0 0 0 4.78416e-11 5.59578e-11 0 1.17247e-11 0 
0 1.39732e-12 4.83428e-12 2.93002e-11 0 0 0 0 0 
0 0 0 0 0 2.71172e-11 0 8.48127e-11 0 
0 0 5.73589e-11 0 7.79123e-11 0 0 0 0 
0 0 0 0 0 0 0 0 0 
0 9.34648e-12 0 0 0 0 0 0 0 
0 0 1.41262e-11 9.15499e-11 1.40473e-11 0 0 0 0 
0 5.73385e-11 0 3.90548e-11 4.05915e-11 0 0 0 4.13564e-12 
0 2.60228e-11 0 0 0 0 0 0 0 
0 0 0 0 0 0 0 0 0 
0 0 0 0 0 0 0 0 0 
0 0 0 0 0 0 0 0 0 
0 0 0 0 0 0 0 0 0 
0 0 0 0 0 0 0 0 0 
0 3.54243e-12 0 5.17132e-11 0 0 0 0 0 
0 0 0 4.30864e-11 4.60435e-11 0 0 0 0 
0 2.63397e-08 0 2.39037e-10 0 0 5.80901e-12 2.06178e-12 0 
0 1.27208e-10 3.97058e-12 0 0 0 0 0 3.53137e-11 
2.98872e-11 0 0 0 0 2.24821e-11 6.98986e-11 0 0 
0 0 0 0 1.65718e-11 0 0 0 0 
0 0 0 0 0 0 5.69519e-11 0 0 
0 0 9.4386e-11 0 3.22731e-11 0 0 0 0 
0 0 0 0 0 0 4.77337e-11 9.30045e-12 0 
0 1.25309e-10 0 0 0 0 3.54593e-10 0 0 
0 0 0 0 0 0 0 2.29889e-11 0 
0 0 0 0 0 2.14142e-10 0 0 5.40238e-11 
0 0 0 3.35949e-11 5.23931e-11 2.45067e-11 0 0 0 
1.26185e-10 0 0 0 0 2.97072e-10 2.73375e-08 2.60367e-10 0 
0 0 1.19755e-10 0 0 8.85329e-11 0 0 2.16785e-12 
1.00731e-11 0 0 0 0 5.9273e-12 0 0 0 
0 5.67195e-11 1.18262e-10 0 0 0 0 4.32173e-11 6.91989e-11 
0 0 0 0 0 0 0 8.4325e-12 0 
0 0 0 0 8.23468e-12 0 0 0 0 
0 0 0 0 3.13653e-11 0 0 0 0 
1.25894e-13 0 7.17847e-11 0 0 2.35306e-10 0 0 0 
0 0 0 6.01817e-11 0 0 0 0 0 
0 0 0 0 0 1.59186e-12 0 0 0 
0 0 0 0 0 0 0 0 0 
0 0 0 0 0 0 0 0 0 
0 0 0 0 0 0 0 0 0 
0 0 0 0 1.17969e-12 0 4.16907e-13 0 0 
0 0 4.99958e-12 0 0 0 0 4.55347e-11 0 
0 6.76994e-11 0 0 2.47355e-08 0 2.94961e-11 0 6.93576e-13 
3.56619e-11 0 3.55027e-11 0 0 0 0 0 0 
3.53828e-10 0 0 0 0 1.90583e-11 1.39282e-10 0 0 
1.46244e-10 0 0 0 8.4817e-11 8.09571e-12 0 0 0 
0 0 3.84253e-11 1.35286e-11 0 0 4.0938e-11 0 0 
0 0 0 1.97307e-11 0 2.01126e-11 0 2.47032e-11 0 
0 0 0 0 0 2.41313e-10 2.0862e-10 0 0 
0 3.37762e-11 6.51383e-11 1.03179e-10 0 0 1.58806e-10 0 0 
3.1752e-11 0 0 0 0 0 1.04579e-10 9.68769e-11 0 
1.35172e-10 0 1.63251e-10 0 0 1.02104e-10 0 5.89844e-11 0 
0 0 1.48588e-11 0 0 0 0 0 0 
4.37296e-11 0 0 2.44672e-08 1.57275e-10 0 1.02584e-10 0 0 
0 0 0 0 0 1.07272e-10 0 0 1.51153e-10 
1.96905e-12 5.83009e-12 0 0 0 1.84933e-10 0 0 1.95004e-10 
0 0 0 0 0 0 1.63672e-10 0 3.82202e-11 
0 0 0 0 0 0 0 0 1.21562e-10 
0 0 0 6.87475e-11 1.54335e-10 0 0 0 0 
0 0 0 0 0 0 0 7.17635e-13 0 
0 0 0 0 0 0 0 0 6.31277e-12 
0 0 0 0 0 0 1.1977e-10 0 8.49172e-11 
0 0 0 2.49573e-08 0 0 0 0 6.45845e-11 
0 0 3.89017e-11 0 1.66316e-11 0 1.41472e-11 0 0 
0 1.28731e-11 0 0 0 0 0 0 0 
0 0 0 0 0 0 0 0 0 
0 0 0 0 0 0 0 0 0 
0 0 0 0 0 0 0 0 0 
0 0 0 0 0 0 0 0 0 
0 0 0 0 0 0 0 0 0 
0 1.7762e-10 8.22944e-11 1.27671e-10 3.1748e-11 0 0 0 0 
0 0 0 0 0 0 0 0 0 
2.15584e-10 0 0 1.57008e-11 0 1.16583e-10 1.52108e-10 4.61568e-11 0 
0 0 0 0 0 0 0 0 0 
2.99112e-11 0 0 0 0 3.54625e-11 0 7.25929e-11 0 
0 0 0 0 2.60765e-11 0 0 2.23605e-11 0 
6.36932e-11 0 0 0 1.54497e-10 0 4.18653e-11 0 0 
2.91781e-10 0 0 3.01942e-10 0 0 0 0 0 
0 0 0 3.78306e-11 0 6.46864e-11 0 0 2.32157e-10 
0 0 0 0 5.16701e-11 0 0 0 0 
0 0 0 0 0 0 0 0 1.42864e-11 
0 0 0 0 9.97631e-11 0 0 4.23534e-11 0 
7.19558e-11 0 0 3.3315e-11 0 0 0 0 9.95911e-11 
0 0 0 0 1.60348e-10 2.70839e-10 2.71307e-08 0 0 
0 1.15102e-11 0 0 0 7.24627e-11 0 0 0 
0 5.30707e-12 0 0 6.9307e-11 0 1.63787e-10 7.55174e-11 0 
0 0 0 0 0 5.06176e-11 0 0 0 
0 0 0 0 0 0 0 0 0 
2.96697e-12 0 0 0 0 0 4.34872e-12 0 0 
0 0 0 3.08758e-11 5.69328e-11 0 0 1.72255e-11 3.19313e-11 
0 0 0 0 0 9.76157e-12 0 6.6879e-11 4.58388e-11 
0 0 0 0 0 9.15071e-12 0 0 0 
0 1.17407e-11 0 0 0 0 0 0 0 
0 0 0 1.11159e-13 0 0 0 0 0 
0 0 0 0 0 0 0 0 0 
0 0 0 0 0 0 0 0 0 
0 0 0 0 0 0 0 0 0 
0 0 0 0 0 0 6.96001e-11 1.6991e-11 0 
1.15375e-10 2.09105e-11 3.12063e-11 0 0 0 9.64051e-12 0 1.86389e-10 
0 0 2.18493e-11 0 0 2.71129e-10 0 0 2.08812e-10 
0 0 1.05775e-12 0 2.68267e-08 0 0 3.53431e-11 0 
3.93137e-11 0 0 0 6.93956e-11 0 0 0 0 
0 0 0 0 0 0 0 0 0 
0 0 0 0 0 6.65224e-11 6.44115e-11 1.67836e-11 0 
0 0 0 0 0 0 0 0 0 
0 0 0 0 0 0 0 0 1.24135e-10 
0 1.6969e-11 1.79364e-10 1.1144e-10 3.62692e-12 0 2.48485e-11 0 0 
0 0 0 0 0 1.62525e-11 0 0 3.74733e-12 
0 0 0 8.55657e-11 0 0 0 0 3.12086e-11 
2.25151e-11 0 1.51132e-10 0 0 6.83829e-12 0 0 0 
0 8.43809e-11 0 0 0 0 0 1.31228e-10 0 
0 0 0 2.27773e-10 0 0 0 0 0 
0 0 0 0 0 4.58665e-11 0 0 0 
0 0 0 3.661e-11 0 0 0 0 0 
0 0 0 4.87139e-11 5.38815e-11 9.97726e-11 7.95731e-11 0 0 
0 0 0 0 0 0 0 0 0 
0 0 0 3.36829e-11 0 0 0 0 0 
0 0 0 3.33477e-11 0 1.34743e-10 4.73239e-11 0 0 
0 1.91247e-10 0 0 0 0 0 0 0 
0 0 0 0 3.74888e-11 0 0 0 0 
0 0 0 0 0 0 0 0 0 
0 0 0 0 0 0 0 0 0 
0 0 0 0 0 0 0 0 0 
0 0 0 0 0 0 0 0 0 
0 4.71792e-13 0 0 0 0 0 0 0 
0 0 5.32358e-11 0 0 5.16742e-11 0 3.00839e-11 1.42656e-11 
0 0 0 0 0 0 0 0 0 
0 1.40689e-10 0 0 0 0 0 0 0 
0 6.47125e-11 2.52261e-10 0 0 9.27407e-11 0 0 0 
3.95053e-11 0 0 1.26135e-11 0 0 0 0 1.43607e-11 
0 0 0 0 0 0 2.45705e-11 0 6.94749e-11 
0 0 0 7.50067e-11 7.10824e-11 0 0 0 1.0168e-12 
1.75626e-10 0 0 3.03395e-08 0 0 0 3.48515e-08 0 
0 0 0 1.63756e-10 0 1.07102e-10 0 7.27197e-11 1.77985e-10 
1.42733e-11 1.99372e-11 8.42901e-11 0 0 0 0 6.13219e-11 0 
5.00078e-11 0 0 0 0 0 1.56643e-11 0 0 
0 0 0 0 0 0 0 0 0 
2.1878e-11 0 0 2.59136e-12 7.9809e-11 0 0 0 6.26337e-11 
0 0 0 7.08571e-12 0 0 0 6.00413e-11 0 
8.19002e-11 0 0 0 0 0 0 8.63256e-11 3.56722e-11 
0 0 0 0 0 0 1.55457e-10 0 0 
0 0 0 0 0 0 0 0 0 
0 0 0 0 0 7.36178e-11 7.09292e-11 0 0 
0 0 0 0 1.2552e-11 0 0 0 0 
0 3.66341e-11 0 6.4433e-11 0 0 0 0 0 
0 0 9.40481e-11 0 0 0 0 0 0 
0 0 4.37126e-11 6.15367e-11 1.91288e-11 9.98829e-11 0 4.87742e-11 1.33372e-10 
0 0 0 0 0 0 0 0 0 
0 0 0 0 0 0 0 0 0 
0 0 0 0 0 0 0 0 0 
0 0 0 8.55739e-13 0 0 0 0 0 
0 0 0 0 0 0 0 0 0 
0 0 0 0 0 0 0 0 0 
0 4.47529e-11 0 9.6271e-11 0 6.02684e-11 0 0 0 
0 0 0 1.13399e-10 4.42874e-11 4.29031e-11 0 1.00071e-10 0 
0 0 0 0 0 0 0 0 0 
0 0 0 0 0 8.99034e-12 0 0 0 
0 0 0 0 0 0 1.0463e-10 0 0 
0 0 8.77586e-11 0 0 0 1.57513e-11 0 0 
0 0 0 0 0 8.33308e-11 0 1.78325e-10 0 
0 0 2.494e-10 0 0 0 0 0 0 
0 0 0 0 2.63273e-08 0 0 0 0 
0 0 0 0 0 0 0 0 0 
0 0 0 0 0 0 0 0 1.45801e-11 
0 0 0 0 2.1839e-11 0 0 0 6.04561e-11 
0 0 0 0 1.37565e-10 0 0 0 0 
5.89977e-11 0 0 0 0 0 1.0293e-10 0 7.85897e-11 
5.87613e-11 9.24563e-11 0 0 0 0 1.20641e-10 0 0 
1.0578e-10 2.49739e-08 0 0 0 1.1672e-10 4.65746e-11 0 0 
0 1.94551e-10 0 0 0 0 2.8388e-08 0 0 
6.51823e-11 0 0 0 0 0 0 0 0 
0 0 0 0 0 0 0 0 0 
0 5.06908e-11 0 0 0 1.01483e-10 6.4816e-11 0 0 
1.67621e-11 0 0 0 0 0 0 0 0 
0 0 0 0 0 0 0 0 7.70934e-11 
4.42058e-11 0 0 0 0 0 0 0 0 
0 0 0 0 0 0 0 0 0 
0 0 0 0 0 0 0 0 0 
0 0 0 0 0 0 0 0 0 
0 0 0 0 0 0 0 0 0 
0 0 0 0 0 0 2.3078e-11 0 0 
0 5.82606e-11 0 0 0 0 0 9.72763e-11 0 
3.95581e-10 0 0 0 2.94776e-11 7.73108e-11 0 0 0 
0 3.85843e-08 3.87958e-08 0 0 0 3.2608e-11 0 0 
0 0 6.91625e-11 1.55812e-11 0 0 0 0 0 
0 0 8.72388e-11 0 0 4.22237e-11 0 0 0 
0 0 2.15524e-11 0 0 0 0 0 0 
0 2.15292e-11 0 0 0 0 0 0 0 
0 0 0 0 3.34052e-08 0 0 2.17644e-10 0 
2.65579e-10 0 2.66781e-10 0 0 1.10476e-11 0 0 4.06404e-12 
0 0 0 0 0 5.07256e-11 0 0 0 
0 0 0 0 0 0 0 0 0 
0 8.14457e-11 0 0 0 0 0 0 0 
0 9.81471e-12 0 0 0 0 0 0 0 
0 0 0 1.12744e-10 0 0 0 1.60176e-10 0 
0 9.23157e-12 0 0 0 0 0 0 0 
0 7.14482e-11 6.12995e-12 0 1.02173e-10 4.74615e-11 0 2.14068e-10 0 
0 0 0 0 9.58574e-11 0 0 0 2.91388e-11 
0 0 0 0 0 0 0 0 0 
0 0 0 0 1.54211e-11 2.10879e-11 0 0 2.67431e-11 
0 0 0 0 2.58554e-10 0 0 1.32107e-10 0 
4.67235e-11 1.24865e-10 0 0 0 1.10007e-10 2.30668e-10 0 0 
0 0 0 0 0 0 0 0 1.27885e-11 
0 0 0 0 9.40216e-12 7.93582e-12 0 0 0 
0 0 0 0 0 0 0 0 0 
0 0 0 0 0 0 0 0 0 
0 0 0 0 0 0 0 0 0 
0 0 0 0 0 0 0 0 0 
0 0 0 0 2.09165e-11 0 0 0 0 
0 0 5.88944e-11 0 0 0 0 0 0 
0 6.11317e-12 0 0 5.55214e-11 0 8.76372e-11 0 0 
0 0 2.26508e-10 0 0 8.794e-11 1.06358e-10 0 0 
0 0 2.70196e-11 0 0 0 0 0 0 
6.32365e-12 0 0 8.19635e-11 0 1.13462e-10 0 0 0 
0 0 0 0 0 0 0 0 0 
0 0 0 0 0 0 9.28815e-12 0 1.63185e-11 
0 4.88316e-10 0 0 0 5.72464e-11 0 2.39116e-11 0 
5.65357e-11 0 0 0 0 0 7.95875e-11 0 0 
0 9.72995e-11 0 0 5.73613e-11 0 0 4.48198e-11 0 
0 0 0 0 0 2.96583e-11 0 0 0 
0 0 0 0 7.12927e-12 0 0 0 0 
0 0 0 0 0 0 0 0 0 
0 3.10797e-11 5.68662e-11 0 0 0 0 0 0 
4.30206e-11 0 0 9.05088e-11 0 0 0 0 0 
0 0 0 0 0 2.38815e-11 0 5.8092e-11 0 
5.36075e-11 0 0 2.1365e-10 0 0 0 4.48687e-11 0 
4.76534e-12 0 0 0 0 0 0 0 0 
0 0 0 0 0 0 0 0 0 
1.94459e-10 1.71075e-10 2.68664e-08 0 0 1.94912e-10 0 0 0 
0 0 4.6305e-11 1.49188e-12 0 2.4058e-11 0 0 0 
0 0 0 1.44884e-11 0 0 0 0 0 
0 0 0 0 0 0 0 0 0 
0 0 0 0 0 0 0 0 0 
0 0 0 0 0 0 0 0 0 
0 0 0 0 0 0 0 0 0 
0 0 0 0 0 0 0 0 0 
0 0 0 0 0 0 0 5.4711e-11 0 
0 3.52196e-11 0 0 0 2.68514e-08 0 3.85845e-10 1.08925e-10 
0 0 0 0 2.77537e-10 2.89622e-10 0 0 0 
5.85833e-11 1.99944e-10 0 0 1.15996e-10 0 0 0 0 
0 0 0 0 0 0 0 0 0 
0 0 0 3.42349e-11 1.04905e-10 9.87342e-11 0 3.01326e-10 0 
0 2.33537e-11 0 0 0 0 5.59756e-11 0 0 
0 1.53002e-12 0 1.08614e-10 2.25923e-11 0 4.31738e-11 0 4.57421e-14 
0 0 4.72321e-11 0 1.01664e-10 9.35729e-12 1.31028e-11 0 0 
9.07378e-11 0 5.96571e-12 1.40685e-11 0 0 0 6.2827e-11 0 
0 0 0 0 0 0 0 0 0 
0 0 0 0 3.38131e-11 0 4.30128e-11 0 0 
0 0 0 0 0 0 0 0 0 
0 0 0 0 0 0 4.59286e-11 0 0 
0 0 1.25684e-10 0 0 0 0 9.77837e-12 0 
0 0 0 0 0 5.09968e-11 0 0 1.57336e-11 
1.35692e-10 0 0 0 0 0 0 0 1.84896e-10 
2.7334e-10 0 0 0 9.93764e-11 0 0 2.25917e-11 0 
1.93207e-11 0 0 0 0 0 0 0 0 
0 0 0 0 0 0 0 0 0 
1.07545e-10 8.30903e-11 7.24439e-11 0 0 0 0 0 0 
0 0 1.99288e-10 2.97484e-11 4.3552e-11 1.13848e-10 0 3.11689e-08 0 
0 0 0 0 0 0 0 0 0 
0 0 0 0 0 0 0 0 0 
0 0 0 0 0 0 0 0 0 
0 0 0 0 0 0 0 0 0 
0 0 0 0 0 0 0 0 0 
0 0 0 0 0 0 0 0 0 
0 0 0 0 0 0 0 2.49291e-10 4.06947e-11 
0 0 0 0 2.82476e-10 1.5956e-10 5.21598e-13 2.62237e-12 0 
0 3.36444e-11 0 1.8732e-10 0 0 0 0 0 
2.97317e-11 0 0 0 0 0 0 0 0 
0 0 0 0 0 0 0 1.40373e-10 0 
0 1.25415e-10 0 0 0 0 6.19335e-11 0 2.95993e-11 
1.67048e-11 0 0 5.39518e-11 0 3.36516e-11 0 0 0 
0 0 0 0 0 4.51718e-11 2.12465e-10 2.51185e-11 0 
0 0 0 3.01402e-11 0 0 0 1.77832e-11 0 
0 1.02803e-10 0 8.42663e-13 0 0 0 0 0 
0 5.20893e-11 1.37755e-10 0 0 0 0 0 2.00565e-11 
1.31779e-11 0 6.54988e-11 0 0 0 0 0 0 
1.19264e-10 0 0 0 0 0 0 0 8.92231e-11 