# vtk DataFile Version 5.1
vtk output
ASCII
DATASET STRUCTURED_POINTS
DIMENSIONS 250 250 1
SPACING 1 1 1
ORIGIN 0 0 0
POINT_DATA 62500
FIELD FieldData 6
feature_1 1 62500 float
0 0 0 0 0 0 0 0 0 
0 0 0 0 0 0 0 0 0 
0 0 0 0 0 0 0 0 0 
0 0 0 0 0 0 0 0 0 
0 0 0 0 0 0 0 0 0 
0 0 0 0 0 0 0 0 0 
0 0 0 0 0 0 0 0 0 
0 0 0 0 0 0 0 0 0 
0 0 0 0 0 0 0 0 0 
0 0 0 0 0 0 0 0 0 
0 0 0 0 0 0 0 0 8.37274e-13 
0 0 0 0 0 0 0 0 0 
0 0 0 0 0 0 0 0 0 
0 0 0 0 0 0 0 0 0 
0 0 0 0 0 0 0 0 0 
0 0 0 0 0 0 0 0 0 
0 0 0 0 0 0 0 0 0 
0 0 0 0 0 0 0 0 0 
0 0 0 0 0 0 0 0 0 
0 0 0 0 0 0 0 0 0 
0 0 0 0 0 0 0 0 0 
0 0 0 0 0 0 0 0 0 
0 0 0 0 0 0 0 0 0 
0 0 0 0 0 0 0 0 0 
0 0 0 0 0 0 0 0 0 
0 0 0 0 0 0 0 0 0 
0 0 0 0 0 0 0 0 0 
0 0 0 0 0 0 0 0 0 
0 0 0 0 0 0 0 0 0 
0 0 0 0 0 0 0 0 0 
0 0 0 0 0 0 0 0 0 
0 0 0 0 0 0 0 0 0 
0 0 0 0 0 0 0 9.33371e-13 0 
0 0 0 0 0 0 0 0 0 
0 0 0 0 0 0 0 0 0 
0 0 0 0 5.9264e-13 0 0 0 0 
0 0 0 0 0 0 0 0 0 
0 0 0 0 0 0 0 0 0 
0 0 0 0 0 0 0 0 0 
0 0 0 0 0 0 0 0 0 
0 0 0 0 0 0 0 0 0 
0 0 0 0 0 0 0 0 0 
0 0 0 0 0 0 0 0 0 
0 0 0 0 0 0 0 0 0 
0 0 0 0 0 0 0 0 0 
0 0 0 0 0 0 0 0 0 
2.20432e-12 0 0 0 0 0 0 0 0 
0 0 0 0 0 0 0 0 0 
0 0 0 0 0 0 0 0 0 
0 0 0 0 0 0 0 0 0 
0 0 0 0 0 0 0 0 0 
0 0 0 0 0 0 0 0 0 
0 0 0 0 0 0 0 0 0 
0 0 0 0 0 0 0 0 0 
0 0 0 0 0 0 0 0 0 
0 0 0 0 0 0 0 0 0 
0 0 0 0 0 0 0 0 0 
0 0 0 0 0 0 0 0 0 
0 0 0 0 0 0 0 0 0 
0 0 0 0 0 0 0 0 0 
0 0 0 0 2.04337e-12 0 0 0 0 
0 0 0 0 0 0 0 0 0 
0 0 0 0 0 0 0 0 0 
0 0 0 0 0 0 0 0 0 
0 0 0 0 0 0 0 0 0 
0 0 0 0 0 0 0 0 0 
0 0 0 0 0 0 0 0 0 
0 0 0 0 0 0 0 0 0 
0 0 0 0 0 0 0 0 0 
0 0 0 0 0 0 0 0 0 
0 0 0 0 0 0 0 0 0 
0 0 0 0 0 0 0 0 0 
0 0 0 0 0 0 0 0 0 
0 0 0 0 0 0 0 0 0 
0 0 0 0 0 0 0 0 0 
0 0 0 0 0 0 0 0 0 
0 0 0 0 0 0 0 0 0 
0 0 0 0 0 0 0 0 0 
0 0 0 0 0 0 0 0 0 
0 0 0 0 0 0 0 0 0 
0 0 0 0 0 0 0 0 0 
0 0 0 0 0 0 0 0 0 
0 0 0 0 0 0 0 0 0 
0 0 0 0 0 0 0 0 0 
0 0 0 0 0 0 0 0 0 
0 0 0 0 0 0 0 0 0 
0 0 0 0 0 0 0 0 0 
0 0 0 0 0 0 0 0 0 
0 0 0 0 0 0 0 0 0 
0 0 0 0 0 0 0 0 0 
0 0 0 0 0 0 0 0 0 
0 0 0 0 0 0 0 0 0 
0 0 0 0 0 0 0 0 0 
0 0 0 0 0 0 0 0 0 
0 0 0 0 0 0 0 0 0 
0 0 0 0 0 0 0 0 0 
0 0 0 0 0 0 0 0 0 
0 0 0 0 0 0 0 0 0 
0 0 0 0 0 0 0 0 0 
0 0 0 0 0 0 0 0 0 
0 0 0 0 0 0 0 0 0 
0 0 0 0 0 0 0 0 0 
0 0 0 0 0 0 0 0 0 
0 0 0 0 0 0 0 0 0 
0 0 0 0 0 0 0 0 0 
0 0 0 0 0 0 0 0 0 
0 0 0 0 0 0 0 0 0 
0 0 0 0 0 0 0 0 0 
0 0 0 0 0 0 0 0 0 
0 0 0 0 0 0 0 0 0 
0 0 0 0 0 0 0 0 0 
0 0 0 0 0 0 0 0 0 
0 0 0 0 0 0 0 0 0 
0 0 0 0 0 0 0 0 0 
0 0 0 0 0 0 0 0 0 
0 0 0 0 0 0 0 0 0 
0 0 0 0 0 0 0 0 0 
0 0 0 0 0 0 0 0 0 
0 0 0 0 0 0 0 0 0 
0 0 0 0 0 0 0 0 0 
0 0 0 0 0 0 0 0 0 
0 0 0 0 0 0 0 0 0 
0 0 0 0 0 0 0 0 0 
0 0 0 0 0 0 0 0 0 
0 0 0 0 0 0 0 0 0 
0 0 0 0 0 0 0 0 0 
0 0 0 0 0 0 0 0 0 
0 0 0 0 0 0 0 0 0 
0 0 0 0 0 0 0 0 0 
0 0 0 0 0 0 0 0 0 
0 0 0 0 0 0 0 0 0 
0 0 0 0 0 0 0 0 0 
0 0 0 0 0 0 0 0 0 
0 0 0 0 0 0 0 0 0 
0 0 0 0 0 0 0 0 0 
0 0 0 0 0 0 0 0 0 
0 0 0 0 0 0 0 0 0 
0 0 0 0 0 0 0 0 0 
0 0 0 0 0 0 0 0 0 
0 0 0 0 0 0 0 0 0 
0 0 0 0 0 0 0 0 0 
0 0 0 1.09635e-13 0 0 0 0 0 
0 0 0 0 0 0 0 0 0 
0 0 0 0 0 0 0 0 0 
0 0 0 0 0 0 0 0 0 
0 0 0 0 0 0 0 0 0 
0 0 0 0 0 0 0 0 0 
0 0 0 0 0 0 0 0 0 
0 0 0 0 0 0 0 0 0 
0 0 0 0 0 0 0 0 0 
0 0 0 0 0 0 0 0 0 
0 0 0 0 0 0 0 0 0 
0 0 0 0 0 0 0 0 0 
0 0 0 0 0 0 0 0 0 
0 0 0 0 0 0 0 0 0 
0 0 0 0 0 0 0 0 0 
0 0 0 0 0 0 0 0 0 
0 0 0 0 0 0 0 0 0 
0 0 0 0 0 0 0 0 0 
0 0 0 0 0 0 0 0 0 
0 0 0 0 0 0 0 0 0 
0 0 0 0 0 0 0 0 0 
0 0 0 0 0 0 0 0 0 
0 0 0 0 0 0 0 0 0 
0 0 0 0 0 0 0 0 0 
0 0 0 0 0 0 0 0 0 
0 0 0 0 0 0 0 0 0 
0 0 0 0 0 0 0 0 0 
0 0 0 0 0 0 0 0 0 
0 0 0 0 0 0 0 0 0 
0 0 0 0 0 0 0 0 0 
0 0 0 0 0 0 0 0 0 
0 0 0 0 0 0 0 0 0 
0 0 0 0 0 0 0 0 0 
0 0 0 0 0 0 0 0 0 
0 0 0 0 0 0 0 0 0 
0 0 0 0 0 0 0 0 0 
0 0 0 0 0 0 0 0 0 
0 0 0 0 0 0 0 0 0 
0 0 0 0 0 0 0 0 0 
0 0 0 0 0 0 0 4.19614e-13 0 
0 0 0 0 0 0 0 0 0 
0 0 0 0 0 0 0 0 0 
0 0 0 0 0 0 0 0 0 
0 0 0 0 0 0 0 0 0 
0 0 0 0 0 0 0 0 0 
0 0 0 0 0 0 0 0 0 
0 0 0 0 0 0 0 0 0 
0 0 0 0 0 0 0 0 0 
0 0 0 0 0 0 0 0 0 
0 0 0 0 0 0 0 0 0 
0 0 0 0 0 0 0 0 0 
0 0 0 0 0 0 0 0 0 
0 0 0 0 0 0 0 0 0 
0 0 0 0 0 0 0 0 0 
0 0 0 0 0 0 0 0 0 
0 0 0 0 0 0 0 0 0 
0 0 0 0 0 0 0 0 0 
0 0 0 0 0 0 0 0 0 
0 0 0 0 0 0 0 0 0 
0 0 0 0 0 0 0 0 0 
0 0 0 0 0 0 0 0 0 
0 0 0 0 0 0 0 0 0 
0 0 0 0 0 0 0 0 0 
0 0 0 0 0 0 0 0 0 
0 0 0 0 0 0 0 0 0 
0 0 0 0 0 0 0 0 0 
0 0 0 0 0 0 0 0 0 
0 0 0 0 0 0 0 0 0 
0 0 0 0 0 0 0 0 0 
0 0 0 0 0 0 0 0 0 
0 0 0 0 0 0 0 0 0 
0 0 0 0 0 0 0 0 0 
0 0 0 0 0 0 0 0 0 
0 0 0 0 0 0 0 0 0 
0 0 0 0 0 0 0 0 0 
0 0 0 0 0 0 0 0 0 
0 0 0 0 0 0 0 0 0 
0 0 0 0 0 0 0 0 0 
0 0 0 0 0 0 0 0 0 
0 0 0 0 0 0 0 0 0 
0 0 0 0 0 0 0 0 0 
0 0 0 0 0 0 0 0 0 
0 0 0 0 0 0 0 0 0 
0 0 0 0 0 0 0 0 0 
0 0 0 0 0 0 0 0 0 
0 0 0 0 0 0 0 0 0 
0 0 0 0 0 0 0 0 0 
0 0 0 0 0 0 0 0 0 
0 0 0 0 0 0 0 0 0 
0 0 0 0 0 0 0 0 0 
0 0 0 0 0 0 0 0 0 
0 0 0 0 0 0 0 0 0 
0 0 0 0 0 0 0 0 0 
0 0 0 0 0 0 0 0 0 
0 0 0 0 0 0 0 0 0 
0 0 0 0 0 0 0 0 0 
0 0 0 0 0 0 0 0 0 
0 0 0 0 0 0 0 0 0 
0 0 0 0 0 0 0 0 0 
0 0 0 0 0 0 0 0 0 
0 0 0 0 0 0 0 0 0 
0 0 0 0 0 0 0 0 0 
0 0 0 0 0 0 0 0 0 
0 0 0 0 0 0 0 0 0 
0 0 0 0 0 0 0 0 0 
0 0 0 0 0 0 0 0 0 
0 0 0 0 0 0 0 0 0 
0 0 0 0 0 0 0 0 0 
0 0 0 0 0 0 0 0 0 
0 0 0 0 0 0 0 0 0 
0 0 0 0 0 0 0 0 0 
0 0 0 0 0 0 0 0 0 
0 0 0 0 0 0 0 0 0 
0 0 0 0 0 0 0 0 0 
0 0 0 0 0 0 0 0 0 
0 0 0 0 0 0 0 0 0 
0 0 0 0 0 0 0 0 0 
0 0 0 0 0 0 0 0 0 
0 0 0 0 0 0 0 0 0 
0 0 0 0 0 0 0 0 0 
0 0 0 0 0 0 0 0 0 
0 0 0 0 0 0 0 0 0 
0 0 0 0 0 0 0 0 0 
0 0 0 0 0 0 0 0 0 
0 0 0 0 8.04563e-13 0 0 0 0 
0 0 0 0 0 0 0 0 0 
0 0 0 0 0 0 0 0 0 
0 0 0 0 0 0 0 0 0 
0 0 0 0 0 0 0 0 0 
0 0 0 0 0 0 0 0 0 
0 0 0 0 0 0 0 0 0 
0 0 0 0 0 0 0 0 0 
0 0 0 0 0 0 0 0 0 
0 0 0 0 0 0 0 0 0 
0 0 0 0 0 0 0 0 0 
0 0 0 0 0 0 0 0 0 
0 0 0 0 0 0 0 0 0 
0 0 0 0 0 0 0 0 0 
0 0 0 0 0 0 0 0 0 
0 0 0 0 0 0 0 0 0 
0 0 0 0 0 0 0 0 0 
0 0 0 0 0 0 0 0 0 
0 0 0 0 0 0 0 0 0 
0 0 0 0 0 0 0 0 0 
0 0 0 0 0 0 0 0 0 
0 0 0 0 0 0 0 0 0 
0 0 0 0 0 0 0 0 0 
0 0 0 0 0 0 0 0 0 
0 0 0 0 0 0 0 0 0 
0 0 0 0 0 0 0 0 0 
0 0 0 0 0 0 0 0 0 
0 0 0 0 0 0 0 0 0 
0 0 0 0 0 0 0 0 0 
0 0 0 0 0 0 0 0 0 
0 0 0 0 0 0 0 0 0 
0 0 0 0 0 0 0 0 0 
0 0 0 0 0 0 0 0 0 
0 0 0 0 0 0 0 0 0 
0 0 0 0 0 0 0 0 0 
0 0 0 0 0 0 0 0 0 
0 0 0 0 0 0 0 0 0 
0 0 0 0 0 0 0 0 0 
0 0 0 0 0 0 0 0 0 
0 0 0 0 0 0 0 0 0 
0 0 0 0 0 0 0 0 0 
0 0 0 0 0 0 0 0 0 
0 0 0 0 0 0 0 0 0 
0 0 0 0 0 0 0 0 0 
0 0 0 0 0 0 0 0 0 
0 0 0 0 0 0 0 0 0 
0 0 0 0 0 0 0 0 0 
0 0 0 0 0 0 0 0 0 
0 0 0 0 0 0 0 0 0 
0 0 0 0 0 0 0 0 0 
0 0 0 0 0 0 0 0 0 
0 0 0 0 0 0 0 0 0 
0 0 0 0 0 0 0 0 0 
0 0 0 0 0 0 0 0 0 
0 0 0 0 0 5.591e-13 0 0 0 
0 0 0 0 0 0 0 0 0 
0 0 0 0 0 0 0 0 0 
0 0 0 0 0 0 0 0 0 
0 0 0 0 0 0 0 0 0 
0 0 0 0 0 0 0 0 0 
0 0 0 0 0 0 0 0 0 
0 0 0 2.32152e-12 0 0 0 0 0 
0 0 0 0 0 0 0 0 0 
0 0 0 0 0 0 0 0 0 
0 0 0 0 0 0 0 0 0 
0 0 0 0 0 0 0 0 0 
0 0 0 0 0 0 0 0 0 
0 0 0 0 0 0 0 0 0 
0 0 0 0 0 0 0 0 0 
0 0 0 0 0 0 0 0 0 
0 0 0 0 0 0 0 0 0 
0 0 0 0 0 0 0 0 0 
0 0 0 0 0 0 0 0 0 
0 0 0 0 0 0 0 0 0 
0 0 0 0 0 0 0 0 0 
0 0 0 0 0 0 0 0 0 
0 0 0 0 0 0 0 0 0 
0 0 0 0 0 0 0 0 0 
0 0 0 0 0 0 0 0 0 
0 0 0 0 0 0 0 0 0 
0 0 0 0 0 0 0 0 0 
0 0 0 0 0 0 0 0 0 
0 0 0 0 0 0 0 0 0 
0 0 0 0 0 0 0 0 0 
0 0 0 0 0 0 0 0 0 
0 0 0 0 0 0 0 0 0 
0 0 0 0 0 0 0 0 0 
0 0 0 0 0 0 0 0 0 
0 0 0 0 0 0 0 0 0 
0 0 0 0 0 0 0 0 0 
0 0 0 0 0 0 0 0 0 
0 0 0 0 0 0 0 0 0 
0 0 0 0 0 0 0 0 0 
0 0 0 0 0 0 0 0 0 
0 0 0 0 0 0 0 0 0 
0 0 0 0 0 0 0 0 0 
0 0 0 0 0 0 0 0 0 
0 0 0 0 0 0 0 0 0 
0 0 0 0 0 0 0 0 0 
0 0 0 0 0 0 0 0 0 
0 0 0 0 0 0 0 0 0 
0 0 0 0 0 0 0 0 0 
0 0 0 0 0 0 0 0 0 
0 0 0 0 0 0 0 0 0 
0 0 0 0 0 0 0 0 0 
0 0 0 0 0 0 0 0 0 
0 0 0 0 0 0 0 0 0 
0 0 0 0 0 0 0 0 0 
0 0 0 0 0 0 0 0 0 
0 0 0 0 0 0 0 0 0 
0 0 0 0 0 0 0 0 0 
0 0 0 0 0 0 0 0 0 
0 0 0 0 0 0 0 0 0 
0 0 0 0 0 0 0 0 0 
0 0 0 0 0 0 0 0 0 
0 0 0 0 0 0 0 0 0 
0 0 0 0 0 0 0 0 0 
0 0 0 0 0 0 0 0 0 
0 0 0 0 0 0 0 0 0 
0 0 0 0 0 0 0 0 0 
0 0 0 0 0 0 0 0 0 
0 0 0 0 0 0 0 0 0 
0 0 0 0 0 0 0 0 0 
0 0 0 0 0 0 0 0 0 
0 0 0 0 0 0 0 0 0 
0 0 0 0 0 0 0 0 0 
0 0 0 0 0 0 0 0 0 
0 0 0 0 0 0 0 0 0 
0 0 0 0 0 0 0 0 0 
0 0 0 0 0 0 0 0 0 
0 0 0 0 0 0 0 0 0 
0 0 0 0 0 0 0 0 0 
0 0 0 0 0 0 0 0 0 
0 0 0 0 0 0 0 0 0 
0 0 0 0 0 0 0 0 0 
0 0 0 0 0 0 0 0 0 
0 0 0 0 0 0 0 0 0 
0 0 0 0 0 0 0 0 0 
0 0 0 0 0 0 0 0 0 
0 0 0 0 0 0 0 0 0 
0 0 0 0 0 0 0 0 0 
0 0 0 0 0 0 0 0 0 
0 0 0 0 0 0 0 0 0 
0 0 0 0 0 0 0 0 0 
0 0 0 0 0 0 0 0 0 
0 0 0 0 0 0 0 0 0 
0 0 0 0 0 0 0 0 0 
0 0 0 0 0 0 0 0 0 
0 0 0 0 0 0 0 0 0 
0 0 0 0 0 0 0 0 0 
0 0 0 0 0 0 0 0 0 
0 0 0 0 0 0 0 0 0 
0 0 0 0 0 0 0 0 0 
0 0 0 0 0 0 0 0 0 
0 0 0 0 0 0 0 0 0 
0 0 0 0 0 0 0 0 0 
0 0 0 0 0 0 0 0 0 
0 8.45167e-13 0 0 0 0 0 0 0 
0 0 0 0 0 0 0 0 0 
0 0 0 0 0 0 0 0 0 
0 0 0 0 0 0 0 0 0 
0 0 0 0 0 0 0 0 0 
0 0 0 0 0 0 0 0 0 
0 0 0 0 0 0 0 0 0 
0 0 0 0 0 0 0 0 0 
0 0 0 0 0 0 0 0 0 
0 0 0 0 0 0 0 0 0 
0 0 0 0 0 0 0 0 0 
0 0 0 0 0 0 0 0 0 
0 0 0 0 0 0 0 0 0 
0 0 0 0 0 0 0 0 0 
0 0 0 0 0 0 0 0 0 
0 0 0 0 0 0 0 0 0 
0 0 0 0 0 0 0 0 0 
0 0 0 0 0 0 0 0 0 
0 0 0 0 0 0 0 0 0 
0 0 0 0 0 0 0 0 0 
0 0 0 0 0 0 0 0 0 
0 0 0 0 0 0 0 0 0 
0 0 0 0 0 0 0 0 0 
0 0 0 0 0 0 0 0 0 
0 0 0 0 0 0 0 0 0 
0 0 0 0 0 0 0 0 0 
0 0 0 0 0 0 0 0 0 
0 0 0 0 0 0 0 0 0 
0 0 0 0 0 0 0 0 0 
0 0 0 0 0 0 0 0 0 
8.73204e-13 0 0 0 0 0 0 0 0 
0 0 0 0 0 0 0 0 0 
0 0 0 0 0 0 0 0 0 
0 0 0 0 0 0 0 0 0 
0 0 0 0 0 0 0 0 0 
0 0 0 0 0 0 0 0 0 
0 0 0 0 0 0 0 0 0 
0 0 0 0 0 0 0 0 0 
0 0 0 0 2.08583e-12 0 0 0 0 
0 0 0 0 0 0 0 0 0 
0 0 0 0 0 0 0 0 0 
0 0 0 0 0 0 0 0 0 
0 0 0 0 0 0 0 0 0 
0 0 0 0 0 0 0 0 0 
0 0 0 0 0 0 0 0 0 
0 0 0 0 0 0 0 0 0 
0 0 0 0 0 0 0 0 0 
0 0 0 0 0 0 0 0 0 
0 0 0 0 0 0 0 0 0 
0 0 0 0 0 0 0 0 0 
0 0 0 0 0 0 0 0 0 
0 0 0 0 0 0 0 0 0 
0 0 0 0 0 0 0 0 0 
0 0 0 0 0 0 0 0 0 
0 0 0 0 0 0 0 0 0 
0 0 0 0 0 0 0 0 0 
0 0 0 0 0 0 0 0 0 
0 0 0 0 0 0 0 0 0 
0 2.62171e-12 0 0 0 0 0 0 0 
0 0 0 0 0 0 0 0 0 
0 0 0 0 0 0 0 0 0 
0 0 0 0 0 0 0 0 0 
0 0 0 0 0 0 0 0 0 
0 0 0 0 0 0 0 0 0 
0 0 0 0 0 0 0 0 0 
0 0 0 0 0 0 0 0 0 
0 0 0 0 0 0 0 0 0 
0 0 0 4.73489e-12 0 0 0 0 0 
0 0 0 0 0 0 0 0 0 
0 0 0 0 1.40097e-12 0 0 0 0 
0 0 0 0 0 0 0 0 0 
0 0 0 0 0 0 0 0 0 
0 0 0 0 0 0 0 0 0 
0 0 0 0 0 0 0 0 0 
0 1.81369e-13 0 0 0 0 0 0 0 
0 0 0 0 0 0 0 0 0 
0 0 0 0 0 0 0 0 0 
0 0 0 0 0 0 0 0 0 
0 0 0 0 0 0 0 0 0 
0 0 0 0 0 0 0 0 0 
0 0 0 0 0 0 0 0 0 
0 0 0 0 0 0 0 0 0 
0 0 0 0 0 0 0 0 0 
0 0 0 0 0 0 0 0 0 
0 0 0 0 0 0 0 0 0 
0 0 0 0 0 0 0 0 6.59026e-12 
0 0 0 0 0 0 0 0 0 
0 0 0 0 0 0 0 0 0 
0 0 0 0 0 0 0 0 0 
0 0 0 0 0 0 0 0 0 
0 0 0 9.26369e-12 0 0 0 0 0 
0 0 0 0 0 0 0 0 0 
0 0 0 0 0 0 0 0 0 
0 0 1.38097e-12 0 0 0 0 0 0 
0 0 0 0 0 0 0 0 0 
0 0 0 0 0 0 0 0 0 
0 0 0 0 0 0 0 0 0 
0 0 0 0 0 0 0 0 0 
0 0 0 0 0 0 0 0 0 
0 0 0 0 0 0 0 0 0 
0 0 0 0 0 0 0 0 0 
0 0 0 0 0 0 0 0 0 
0 0 0 0 0 0 0 0 0 
0 0 0 0 0 0 0 0 0 
0 0 0 0 0 0 0 0 0 
0 0 0 0 0 0 0 0 0 
0 0 0 0 0 0 0 0 0 
0 0 0 0 0 0 0 0 0 
0 0 0 0 0 0 0 0 0 
0 0 0 0 0 0 0 0 0 
0 0 0 0 0 0 0 0 0 
0 0 0 0 0 0 0 0 0 
0 0 0 0 0 0 0 0 0 
0 0 0 0 0 0 0 0 0 
0 0 0 0 0 0 0 0 0 
0 0 0 0 0 0 0 0 4.66564e-12 
0 0 0 0 0 0 0 0 0 
0 0 0 0 0 0 0 0 0 
0 0 0 0 0 0 0 2.57301e-12 0 
0 0 0 0 0 0 0 0 0 
0 0 0 0 0 0 0 0 0 
0 0 0 0 0 0 0 0 0 
0 0 0 0 0 4.65874e-12 0 0 0 
0 0 0 0 0 0 0 0 0 
0 0 0 0 0 0 0 0 0 
0 0 0 0 0 0 0 0 0 
0 0 0 0 0 0 0 0 0 
0 0 0 0 0 0 0 0 0 
0 0 0 0 0 0 0 0 0 
0 0 0 0 0 0 0 0 0 
0 0 0 0 0 0 0 0 0 
0 0 0 0 0 0 0 0 0 
0 0 0 0 0 0 0 0 0 
0 0 0 0 0 0 0 0 0 
0 0 0 0 0 0 0 0 1.06776e-13 
0 0 0 0 0 0 0 0 0 
0 0 0 0 0 0 0 0 0 
0 0 0 0 0 0 0 0 0 
0 0 0 0 0 0 0 0 0 
0 0 0 0 0 0 0 0 0 
0 0 0 0 0 0 0 0 0 
1.85988e-11 0 0 0 2.90615e-11 1.40938e-11 0 0 0 
0 0 0 0 0 0 0 0 0 
0 2.17003e-11 0 0 0 0 0 0 1.98278e-11 
0 0 0 0 0 0 0 0 0 
0 0 0 0 0 0 0 0 0 
0 0 0 0 0 0 0 0 0 
0 0 0 0 0 0 0 0 0 
0 0 0 0 0 0 0 0 0 
0 0 0 0 0 0 0 0 0 
0 0 0 0 0 0 0 0 0 
0 0 0 0 0 0 0 0 0 
0 0 0 0 0 0 0 0 0 
0 0 0 0 0 0 0 0 0 
0 0 0 0 0 0 0 0 0 
0 0 0 0 0 0 0 0 0 
0 0 0 0 0 0 0 0 0 
0 0 0 0 0 0 0 0 0 
0 0 0 0 0 0 0 0 0 
0 0 0 0 0 0 0 0 0 
0 0 0 0 0 0 0 0 0 
0 0 0 0 0 0 0 0 0 
0 0 0 0 0 0 0 0 0 
0 0 0 0 0 0 0 0 0 
0 0 0 0 0 2.6378e-13 0 0 0 
0 0 0 0 0 0 0 0 0 
0 0 0 0 0 0 0 0 0 
0 0 4.23317e-12 0 0 0 0 0 0 
0 0 0 0 0 1.38783e-11 1.44758e-11 0 0 
0 0 0 0 0 0 0 0 0 
0 0 0 0 0 0 0 0 0 
0 0 0 0 0 0 0 0 0 
8.37909e-12 0 0 0 0 2.06556e-11 0 0 0 
0 0 0 0 0 1.15837e-11 0 0 0 
0 0 0 0 0 0 0 0 0 
0 0 0 0 0 0 0 0 0 
0 0 0 0 0 0 0 0 0 
0 0 0 0 0 1.23507e-11 0 1.69774e-11 0 
0 0 0 0 0 0 0 0 0 
0 0 0 0 0 0 0 0 0 
0 0 0 0 0 0 0 0 0 
0 0 0 0 0 0 0 0 0 
0 0 0 0 0 0 0 0 0 
0 0 0 0 0 0 0 0 0 
0 0 0 0 0 0 0 3.52484e-12 0 
0 0 0 0 0 0 0 0 0 
0 0 0 0 0 0 0 0 0 
0 0 0 0 0 0 0 0 0 
0 0 0 0 0 0 0 0 0 
0 0 0 0 0 0 0 0 0 
0 0 0 0 0 0 0 0 0 
0 0 0 0 0 0 0 0 0 
0 0 0 0 0 0 0 0 0 
0 0 0 0 0 0 0 0 0 
0 0 0 0 0 0 0 0 0 
0 0 0 0 0 0 0 0 0 
0 0 0 0 0 1.85087e-11 0 2.30864e-11 0 
0 0 0 0 0 0 0 0 0 
0 0 0 0 2.42663e-11 0 2.77697e-11 0 0 
1.0328e-11 0 0 0 0 0 0 0 0 
2.88256e-11 0 0 0 0 0 0 0 0 
0 1.96894e-11 2.05938e-11 0 0 0 0 0 0 
0 0 0 0 0 0 0 0 0 
0 0 0 0 8.42836e-12 0 0 0 0 
0 0 0 0 0 0 8.16533e-12 0 0 
0 0 0 0 0 0 0 0 0 
0 0 0 0 0 0 0 0 0 
0 0 0 0 0 0 0 0 0 
0 0 0 0 0 0 0 0 0 
0 0 0 4.47376e-13 0 0 0 0 0 
0 0 0 0 0 0 0 0 0 
0 0 0 0 0 0 0 0 0 
0 0 6.80955e-12 0 0 0 0 0 0 
0 0 0 0 0 0 0 0 0 
0 0 0 0 0 0 0 0 0 
0 0 0 0 0 0 0 0 0 
0 0 0 0 0 0 0 0 0 
0 0 0 0 0 0 0 0 0 
0 0 0 0 0 0 0 0 0 
0 0 0 0 2.70916e-12 0 0 0 0 
0 0 0 0 0 0 0 0 0 
0 0 0 0 0 0 0 0 0 
0 0 8.60493e-12 1.59806e-11 0 0 0 1.34237e-11 0 
0 0 0 0 0 0 0 0 0 
0 2.19888e-11 0 8.56624e-12 0 0 0 0 0 
0 0 9.34283e-12 0 0 0 0 0 0 
0 0 0 0 0 0 0 0 0 
0 0 0 0 0 0 0 1.03111e-11 0 
0 0 0 0 2.15017e-13 0 0 0 0 
0 2.79304e-11 0 0 0 0 0 0 0 
8.9586e-12 0 0 0 0 0 0 0 0 
0 0 0 0 0 0 0 0 0 
1.05652e-11 0 0 0 0 0 0 1.04151e-11 0 
0 0 0 0 0 0 1.87263e-11 0 0 
0 0 0 0 0 0 0 0 0 
0 0 0 0 0 0 0 0 0 
0 0 0 0 0 0 0 0 0 
0 0 0 0 0 0 0 0 0 
0 0 0 0 0 0 0 0 0 
0 0 0 0 0 0 0 0 8.77374e-12 
0 0 0 1.38171e-11 0 0 0 0 0 
0 0 0 0 0 0 0 0 0 
0 0 0 0 0 0 0 0 0 
0 0 0 0 0 0 0 0 0 
0 0 0 0 0 0 0 0 0 
0 0 0 0 0 0 0 0 0 
0 0 0 0 0 0 0 0 0 
0 0 0 0 0 0 0 0 0 
0 0 0 0 0 0 0 0 0 
0 0 0 0 0 0 0 0 0 
0 0 0 0 0 0 0 0 0 
0 0 1.32679e-11 1.55541e-11 0 1.08953e-11 0 0 0 
4.0218e-11 0 3.62182e-11 0 0 0 0 0 0 
2.63743e-11 0 0 0 0 0 0 0 0 
0 2.82413e-11 0 0 0 0 0 5.69979e-11 0 
0 0 0 0 0 0 0 1.05199e-12 0 
0 0 0 0 0 0 0 0 0 
3.80216e-11 0 0 7.23677e-12 0 1.4384e-11 0 0 0 
0 0 0 0 0 0 7.49396e-12 0 0 
0 0 0 0 0 0 0 0 0 
2.8243e-11 0 0 0 0 0 0 0 0 
0 0 0 0 0 0 0 0 0 
0 0 0 1.05012e-11 0 0 1.56212e-11 0 0 
0 0 0 0 0 0 0 0 0 
0 0 0 0 0 0 0 0 0 
0 0 0 0 0 0 0 0 0 
0 0 0 0 0 0 0 0 0 
0 0 0 4.5039e-12 0 0 0 0 0 
0 0 0 0 0 0 0 0 0 
3.89005e-12 0 0 0 0 0 0 0 0 
0 0 0 0 0 0 0 0 0 
0 0 0 0 0 0 0 0 0 
0 0 0 0 0 0 0 0 0 
0 0 0 0 0 0 0 0 0 
0 0 0 0 0 0 0 0 0 
0 0 0 0 0 0 0 0 0 
0 0 0 0 0 0 1.08768e-11 0 0 
3.14202e-11 0 3.50534e-11 0 0 0 0 0 0 
0 0 0 0 0 0 0 0 0 
0 0 0 0 1.93384e-11 0 2.9262e-11 0 0 
2.78565e-11 3.49746e-11 0 0 0 4.53063e-11 0 0 0 
0 0 0 0 0 0 0 0 0 
0 0 0 2.21905e-11 7.31433e-11 0 0 2.91244e-11 0 
4.52967e-11 0 0 0 0 0 0 0 0 
0 3.10232e-11 0 5.06203e-11 0 0 0 0 0 
0 0 0 0 8.29355e-12 0 0 0 1.3946e-11 
0 0 0 0 0 0 0 0 0 
0 0 0 0 0 0 0 0 0 
0 0 0 5.54556e-11 2.19406e-11 0 0 0 0 
0 0 0 0 8.24398e-12 0 0 0 0 
0 1.32326e-11 0 0 0 0 0 0 0 
0 0 1.54053e-11 0 0 0 0 0 0 
0 0 0 0 0 0 0 0 0 
0 0 0 0 0 0 0 0 0 
0 0 0 0 0 0 0 0 0 
0 0 0 0 0 0 0 0 3.09803e-11 
0 0 0 0 0 0 0 0 0 
0 0 0 0 0 0 0 0 0 
0 0 0 0 0 0 0 0 0 
0 0 0 0 0 0 0 0 0 
0 0 0 0 0 0 0 0 0 
0 0 0 0 0 0 0 0 0 
0 0 0 0 0 0 0 0 0 
0 0 0 0 0 0 0 0 0 
0 0 0 0 0 0 0 0 0 
2.96071e-11 0 0 0 4.83867e-11 0 0 0 0 
0 0 0 0 0 0 0 0 0 
0 0 1.50864e-11 2.60314e-11 0 0 0 0 0 
0 0 0 0 1.78981e-11 0 0 0 0 
0 0 0 0 0 7.75642e-11 0 0 4.5292e-13 
2.13258e-11 0 6.16215e-11 1.06331e-10 0 0 0 0 0 
0 0 0 0 0 0 0 0 0 
4.67437e-11 4.45678e-11 0 0 6.0808e-11 0 0 0 0 
3.87827e-11 0 0 0 0 0 0 0 0 
0 0 0 0 2.36655e-11 0 0 0 0 
0 2.65479e-12 0 0 0 0 0 0 0 
0 0 0 1.55934e-12 4.79707e-11 0 0 1.30657e-11 0 
1.04451e-11 0 0 2.06878e-11 0 0 0 0 0 
0 0 0 0 0 0 0 0 0 
0 1.30836e-11 7.10755e-12 4.02424e-13 0 0 0 0 0 
0 2.12682e-11 0 2.95405e-12 0 0 0 0 0 
0 0 0 0 0 0 0 0 0 
0 0 0 0 0 0 0 9.68092e-12 0 
0 1.37506e-11 0 0 0 0 0 0 0 
0 0 0 0 7.99821e-12 0 0 0 0 
0 0 0 0 0 0 0 0 0 
0 0 0 0 0 0 0 0 0 
0 0 0 0 0 0 0 0 0 
0 0 8.29394e-13 0 0 0 0 0 0 
0 0 0 0 0 0 0 0 0 
0 0 0 0 0 0 0 0 0 
0 0 0 0 0 1.50283e-11 0 0 0 
0 4.32872e-12 0 0 1.05329e-11 0 0 0 0 
0 0 4.01124e-11 0 0 0 0 5.11819e-11 0 
0 0 0 0 0 1.99878e-11 0 0 0 
0 0 0 0 8.49786e-11 0 2.02849e-10 0 0 
0 0 4.90418e-11 3.83561e-11 2.08636e-11 0 0 2.65087e-11 0 
0 0 0 0 0 6.89428e-12 0 0 7.87024e-11 
0 0 0 2.5772e-12 0 0 7.94964e-11 0 0 
0 0 0 0 7.40294e-11 0 0 5.0578e-11 0 
0 0 0 0 0 2.45861e-11 0 0 0 
3.00361e-11 0 0 0 0 0 2.89185e-11 0 0 
0 0 0 0 0 0 0 0 5.16759e-11 
0 0 0 0 8.83071e-11 0 1.3425e-10 0 0 
0 3.45155e-11 0 0 0 0 2.86087e-11 0 0 
5.63427e-11 0 4.28599e-11 0 0 2.47622e-11 0 0 0 
0 0 0 0 1.17328e-11 0 0 3.21716e-11 0 
0 0 2.36521e-11 3.24926e-11 0 0 0 0 0 
0 0 0 0 0 0 0 0 0 
0 0 0 0 0 0 0 0 0 
0 0 0 0 0 0 0 0 0 
0 0 2.45281e-11 6.016e-12 0 0 0 3.53053e-11 0 
0 0 0 0 0 0 0 0 0 
0 0 0 0 0 0 0 0 0 
0 0 0 0 0 0 0 0 0 
0 0 0 0 0 0 0 0 0 
0 0 0 0 0 0 0 0 0 
0 0 0 0 0 0 0 0 0 
0 0 0 0 0 0 0 3.65994e-11 0 
0 0 0 0 4.76238e-12 4.53142e-12 0 0 0 
0 0 0 0 0 4.40277e-11 0 0 0 
0 2.34191e-10 0 0 6.01515e-11 0 0 0 0 
5.08123e-12 0 0 1.60166e-11 0 0 0 0 0 
0 0 0 1.99425e-10 2.43291e-08 0 0 0 4.23782e-11 
0 2.68132e-11 0 0 0 0 0 0 0 
0 0 0 0 2.39622e-10 0 0 0 3.5572e-11 
0 1.14156e-11 0 2.49304e-11 0 0 0 0 5.73082e-11 
0 0 4.24443e-12 0 0 0 0 0 0 
0 0 0 0 0 0 0 0 3.23197e-11 
0 0 2.24483e-11 0 1.23264e-11 0 0 0 0 
0 0 4.69831e-11 0 0 0 0 0 0 
0 0 6.62737e-11 6.62201e-11 0 0 0 0 0 
1.25414e-10 9.66779e-12 0 0 0 9.8366e-11 5.69887e-11 0 0 
0 0 0 0 0 0 0 0 0 
0 2.38308e-11 0 0 0 0 0 0 0 
2.41261e-11 0 0 0 0 2.70585e-11 0 0 0 
0 0 0 0 0 0 0 0 0 
0 0 0 0 0 0 0 7.71315e-12 0 
0 0 1.53751e-11 0 0 4.10072e-11 0 0 0 
0 0 0 6.87044e-11 0 3.87885e-11 0 0 0 
0 0 0 0 0 0 3.28257e-12 0 0 
0 0 0 0 0 0 0 0 0 
0 0 0 0 0 0 0 0 0 
0 0 0 0 0 0 0 0 0 
0 0 0 0 0 0 0 0 0 
0 0 0 0 0 0 0 0 0 
0 0 0 0 1.83506e-11 9.88794e-12 0 0 5.97698e-11 
0 0 0 4.50414e-11 7.31019e-12 3.09713e-11 0 0 0 
0 0 0 0 0 0 0 0 0 
0 3.69229e-11 0 0 0 2.81926e-11 7.01783e-11 0 1.02916e-11 
0 1.22162e-11 0 0 1.17075e-11 1.72055e-11 4.80736e-11 0 0 
0 0 0 1.71823e-10 0 0 4.46742e-11 0 2.27756e-11 
0 0 0 0 0 0 0 1.92167e-11 5.08257e-11 
3.30706e-11 1.28335e-10 2.54814e-08 0 0 0 0 0 0 
2.65805e-11 0 0 0 2.64905e-08 0 0 1.26971e-10 0 
0 4.70325e-12 5.40726e-11 0 2.62701e-11 1.00261e-10 1.39527e-10 0 0 
0 0 0 5.14482e-11 2.84644e-11 1.4286e-11 0 0 0 
0 0 0 2.07605e-11 0 0 0 0 0 
1.26643e-11 0 1.07958e-10 5.86437e-11 0 0 0 0 0 
0 0 0 2.5225e-08 0 0 0 2.63175e-11 0 
9.25805e-11 0 0 1.80472e-10 5.23466e-11 0 0 6.5356e-11 6.84143e-11 
0 0 3.04355e-11 0 0 3.86739e-11 0 0 0 
0 4.3272e-11 0 0 2.51331e-11 0 0 0 0 
0 0 0 0 0 0 0 2.85846e-11 0 
0 2.22635e-12 0 0 0 0 0 0 0 
0 0 0 0 0 0 9.63208e-12 0 0 
0 0 0 0 0 0 0 0 3.32741e-12 
0 0 0 0 0 0 0 0 0 
0 0 1.3911e-11 0 0 0 0 0 0 
0 0 0 0 0 0 0 0 0 
0 0 0 0 0 0 0 0 0 
0 0 0 0 0 0 0 0 0 
0 0 0 0 0 0 0 0 0 
0 0 0 0 0 0 0 0 0 
1.40701e-11 0 0 0 0 7.76811e-11 8.90894e-11 0 0 
0 2.33537e-11 0 0 0 0 0 0 0 
0 0 0 0 0 7.66069e-12 0 0 0 
0 0 0 0 0 0 3.768e-11 0 0 
0 0 0 0 1.1245e-11 0 8.02422e-11 8.47412e-11 0 
0 0 1.03717e-10 7.83364e-11 6.31709e-12 0 0 0 0 
0 0 0 0 0 4.28365e-11 0 0 0 
1.32079e-10 0 0 0 1.4433e-10 0 0 0 0 
2.8025e-11 0 1.72811e-10 0 0 0 0 0 6.14003e-11 
2.71104e-11 0 7.38862e-11 2.16617e-11 0 0 2.46545e-08 0 0 
3.27528e-11 0 0 0 0 1.61719e-11 0 0 0 
0 0 4.38528e-11 0 0 8.49833e-11 6.58903e-11 0 0 
1.00621e-10 7.93432e-11 2.71358e-11 0 7.36749e-11 0 0 0 1.31302e-10 
0 0 0 3.72911e-11 0 1.69711e-10 0 0 0 
1.10611e-10 0 0 0 4.90763e-11 5.92027e-11 0 6.12165e-12 0 
0 0 1.01063e-11 3.21971e-11 0 0 0 0 0 
0 0 0 0 0 2.67006e-11 0 8.24141e-11 0 
0 0 5.69896e-11 0 7.26374e-11 0 0 0 0 
0 0 0 0 0 0 0 0 0 
0 4.66907e-12 0 0 0 0 0 0 0 
0 0 1.88296e-11 9.2257e-11 1.43892e-11 0 0 0 0 
0 6.20689e-11 0 3.83669e-11 3.6147e-11 0 0 0 8.77565e-12 
0 2.17008e-11 0 0 0 0 0 0 0 
0 0 0 0 0 0 0 0 0 
0 0 0 0 0 0 0 0 0 
0 0 0 0 0 0 0 0 0 
0 0 0 0 0 0 0 0 0 
0 0 0 0 0 0 0 0 0 
0 5.70511e-12 0 5.57245e-11 0 0 0 0 0 
0 0 0 3.9781e-11 4.63193e-11 0 0 0 0 
0 2.6346e-08 0 2.43634e-10 0 0 5.97136e-12 0 0 
0 1.19694e-10 3.68764e-12 0 0 0 0 0 3.89002e-11 
2.31521e-11 0 0 0 0 2.54105e-11 6.62627e-11 0 0 
0 0 0 0 1.37774e-11 0 0 0 0 
0 0 0 0 0 0 5.35284e-11 0 0 
0 0 9.40921e-11 0 3.02837e-11 0 0 0 0 
0 0 0 0 0 0 5.21571e-11 1.234e-11 0 
0 1.21136e-10 0 0 0 0 3.59009e-10 0 0 
0 0 0 0 0 0 0 1.65668e-11 0 
0 0 0 0 0 2.19678e-10 0 0 5.89198e-11 
0 0 0 3.77675e-11 5.13314e-11 2.13705e-11 0 0 0 
1.24939e-10 0 0 0 0 2.96163e-10 2.73342e-08 2.63231e-10 0 
0 0 1.15514e-10 0 0 8.86908e-11 0 0 2.68311e-12 
1.01847e-11 0 0 0 0 1.09147e-11 0 0 0 
0 5.84323e-11 1.18095e-10 0 0 0 0 4.58801e-11 6.54712e-11 
0 0 0 0 0 0 0 5.02991e-12 0 
0 0 0 0 6.57724e-12 0 0 0 0 
0 0 0 0 3.89032e-11 0 0 0 0 
0 0 7.47106e-11 0 0 2.33212e-10 0 0 0 
0 0 0 5.68603e-11 0 0 0 0 0 
0 0 8.133e-12 0 0 2.91626e-12 0 0 0 
0 0 0 0 0 0 0 0 0 
0 0 0 0 0 0 0 0 0 
0 0 0 0 0 0 0 0 0 
0 0 0 0 0 0 0 0 0 
0 0 6.79562e-12 0 0 0 0 3.97231e-11 0 
0 6.67204e-11 0 0 2.47332e-08 0 3.07467e-11 0 0 
3.7586e-11 0 4.0009e-11 0 0 0 0 0 0 
3.54234e-10 0 0 0 0 2.65414e-11 1.38872e-10 0 0 
1.51902e-10 0 0 0 7.88953e-11 1.35882e-11 0 0 0 
0 0 3.44571e-11 1.10305e-11 0 0 3.9022e-11 0 0 
0 0 0 2.29021e-11 0 2.88548e-11 0 2.23189e-11 0 
0 0 0 0 0 2.40339e-10 2.04188e-10 0 0 
0 2.53314e-11 6.01582e-11 9.70314e-11 0 0 1.6057e-10 0 0 
3.87939e-11 0 0 0 0 0 1.06472e-10 9.4498e-11 0 
1.39334e-10 0 1.57446e-10 0 0 9.87623e-11 0 5.96189e-11 0 
0 0 1.77433e-11 0 0 0 0 0 0 
4.21454e-11 0 0 2.44668e-08 1.58564e-10 0 1.06615e-10 0 0 
0 0 0 0 0 1.0052e-10 0 0 1.5117e-10 
3.7191e-12 5.26463e-12 0 0 0 1.8198e-10 0 0 1.96977e-10 
0 0 0 0 0 0 1.6545e-10 0 3.5144e-11 
0 0 0 0 0 0 0 0 1.15996e-10 
0 0 0 7.00166e-11 1.53473e-10 0 0 0 0 
0 0 0 0 0 0 0 7.60604e-12 0 
0 0 0 0 0 0 0 0 6.47122e-12 
0 0 0 0 0 0 1.20431e-10 0 8.12293e-11 
0 0 0 2.49552e-08 0 0 0 0 6.81736e-11 
0 0 3.90806e-11 0 2.07576e-11 0 1.29439e-11 0 0 
0 7.51839e-12 0 0 0 0 0 0 0 
0 0 0 0 0 0 0 0 0 
0 0 0 0 0 0 0 0 0 
0 0 0 0 0 0 0 0 0 
0 0 0 0 0 0 0 0 0 
0 0 0 0 0 0 0 0 5.69452e-13 
0 1.81678e-10 8.7263e-11 1.19512e-10 3.43058e-11 0 0 0 0 
0 0 0 0 0 0 0 0 0 
2.18062e-10 0 0 8.47578e-12 0 1.10937e-10 1.45402e-10 4.8211e-11 0 
0 0 0 0 0 0 0 0 3.20732e-14 
3.012e-11 0 0 0 0 3.16316e-11 0 7.12392e-11 0 
0 0 0 0 2.79952e-11 0 0 1.98009e-11 0 
6.52162e-11 0 0 0 1.55053e-10 0 4.47465e-11 0 0 
2.95686e-10 0 0 3.053e-10 0 0 0 0 0 
0 0 0 3.81655e-11 0 6.39295e-11 0 0 2.29791e-10 
0 0 0 0 4.74525e-11 4.21533e-12 0 0 0 
0 0 0 0 0 0 0 0 1.83756e-11 
0 0 0 0 1.02852e-10 0 0 3.89324e-11 0 
6.97717e-11 0 0 2.73044e-11 0 0 0 0 9.99528e-11 
0 0 0 0 1.58043e-10 2.75921e-10 2.71301e-08 0 0 
0 1.60399e-11 0 0 0 6.22083e-11 0 0 0 
0 5.26635e-12 0 1.09074e-12 7.12006e-11 0 1.67365e-10 8.31385e-11 0 
0 0 0 0 0 4.94369e-11 0 0 0 
0 0 0 0 0 0 0 0 0 
0 0 3.86955e-12 0 0 0 1.07669e-11 0 0 
0 0 0 3.22425e-11 5.30208e-11 0 0 1.9181e-11 3.39719e-11 
0 0 0 0 0 9.79359e-12 0 6.28058e-11 4.19839e-11 
0 0 0 0 0 9.97221e-12 0 0 0 
0 1.07822e-11 0 0 0 0 0 0 0 
0 0 0 0 0 0 0 0 0 
0 0 0 0 0 0 0 0 0 
0 0 0 0 0 0 0 0 0 
0 0 0 0 0 0 0 0 0 
0 0 0 3.6361e-12 0 0 6.99444e-11 1.28183e-11 0 
1.11406e-10 2.61683e-11 3.41035e-11 0 0 0 1.07738e-11 0 1.93643e-10 
0 0 2.07494e-11 0 0 2.72317e-10 0 0 2.11961e-10 
0 0 0 0 2.68261e-08 0 0 4.10139e-11 0 
3.78444e-11 0 0 1.34784e-12 6.85898e-11 0 0 0 0 
0 0 0 0 0 0 0 0 0 
0 0 4.58368e-12 0 0 6.50105e-11 6.55788e-11 1.79806e-11 0 
0 0 0 0 0 0 0 0 0 
0 0 0 0 0 0 0 0 1.24964e-10 
0 1.62748e-11 1.78152e-10 1.06846e-10 7.60556e-12 0 1.84066e-11 0 0 
0 0 0 0 0 1.36137e-11 0 0 3.14027e-12 
1.50051e-13 0 0 9.2952e-11 0 0 0 0 3.1783e-11 
2.63416e-11 0 1.47349e-10 0 0 6.78722e-12 0 0 0 
0 8.60016e-11 0 0 0 0 0 1.23256e-10 0 
0 0 0 2.35636e-10 0 0 0 0 0 
0 0 0 0 0 4.61477e-11 0 0 0 
0 0 0 3.57574e-11 0 0 0 0 0 
0 0 0 5.22883e-11 5.84068e-11 9.32303e-11 8.07102e-11 0 0 
0 0 0 0 0 0 0 0 0 
0 0 0 3.18364e-11 0 0 0 0 0 
0 0 0 4.18647e-11 0 1.33869e-10 4.17523e-11 0 0 
0 1.93004e-10 0 0 0 0 0 0 0 
0 0 0 0 3.08463e-11 0 0 0 0 
0 0 0 0 0 0 0 0 0 
0 0 0 0 0 0 0 0 0 
0 0 0 0 0 0 0 0 0 
0 0 0 0 0 0 0 0 0 
0 0 0 0 0 0 0 0 0 
0 0 5.12791e-11 0 0 5.31438e-11 0 2.86719e-11 1.97809e-11 
0 0 0 0 0 0 0 0 0 
0 1.3566e-10 0 0 0 0 0 0 0 
0 6.34512e-11 2.49647e-10 0 0 8.64705e-11 0 0 0 
3.78599e-11 0 0 1.80855e-11 0 0 0 0 1.15322e-11 
0 0 0 0 0 0 2.31236e-11 0 6.70276e-11 
0 0 0 7.01325e-11 7.03565e-11 0 0 0 0 
1.75888e-10 0 0 3.03446e-08 0 0 0 3.48495e-08 0 
0 0 0 1.66046e-10 0 1.06915e-10 0 6.89099e-11 1.70611e-10 
1.9597e-11 1.99046e-11 7.6523e-11 0 0 0 0 5.72468e-11 0 
5.45501e-11 0 0 0 0 0 1.28964e-11 0 0 
0 0 0 0 0 0 0 0 0 
2.2323e-11 0 0 0 7.4513e-11 0 0 0 6.07508e-11 
0 0 0 1.33816e-11 0 0 0 5.58061e-11 0 
7.84244e-11 0 0 0 0 0 0 8.93217e-11 4.55144e-11 
0 0 0 0 0 0 1.52419e-10 0 0 
0 0 0 0 0 0 0 0 0 
0 0 0 0 0 7.04606e-11 6.41608e-11 0 0 
0 0 0 0 1.12834e-11 0 0 0 0 
0 3.59532e-11 0 6.39419e-11 0 0 0 0 0 
0 0 9.24089e-11 0 0 0 0 0 0 
0 0 4.84398e-11 6.32421e-11 2.03645e-11 1.04498e-10 0 4.86205e-11 1.32553e-10 
0 0 0 0 0 0 0 0 0 
0 0 0 0 0 0 0 0 0 
0 0 0 0 0 0 0 0 0 
0 0 0 0 0 0 0 0 0 
0 0 0 0 0 0 0 0 0 
0 0 0 0 0 0 0 0 0 
0 4.11669e-11 0 9.45764e-11 0 5.78403e-11 0 0 0 
0 0 0 1.12744e-10 4.28485e-11 4.41643e-11 0 9.95971e-11 0 
0 0 0 0 0 0 0 0 0 
0 0 0 0 0 1.1627e-11 0 0 0 
0 0 0 0 0 0 1.00528e-10 0 0 
0 0 8.57647e-11 0 0 0 1.26749e-11 0 0 
0 0 0 0 0 7.93457e-11 0 1.82151e-10 0 
0 0 2.42463e-10 0 0 0 0 0 0 
0 0 0 0 2.63254e-08 0 0 0 0 
0 0 0 0 0 0 0 0 0 
0 0 0 0 0 0 0 0 1.55445e-11 
0 0 0 0 1.68271e-11 0 0 0 5.97607e-11 
0 3.66924e-12 0 0 1.31327e-10 0 0 0 0 
5.61979e-11 0 0 0 0 0 9.87747e-11 0 8.36102e-11 
6.46163e-11 9.32921e-11 0 0 0 0 1.22348e-10 0 0 
9.95075e-11 2.49715e-08 0 0 0 1.1421e-10 4.43075e-11 0 0 
0 1.9723e-10 0 0 0 0 2.83884e-08 0 0 
6.636e-11 0 0 0 0 0 0 0 0 
0 0 0 0 0 0 0 0 0 
0 4.74806e-11 0 0 0 1.02313e-10 6.3582e-11 0 0 
1.3415e-11 0 0 0 0 0 0 0 0 
0 0 0 0 0 0 0 0 8.11134e-11 
4.36824e-11 0 0 0 0 0 0 0 0 
0 0 0 0 0 0 0 0 0 
0 0 0 0 0 0 0 0 0 
0 0 0 0 0 0 0 0 0 
0 0 0 0 0 0 0 0 0 
0 0 0 0 0 0 2.26672e-11 0 0 
0 6.18095e-11 0 0 0 0 0 9.18387e-11 0 
3.96371e-10 0 0 0 3.11693e-11 7.62735e-11 0 0 0 
0 3.85891e-08 3.87903e-08 0 0 0 3.43942e-11 0 0 
0 0 6.9062e-11 1.19171e-11 0 0 0 0 0 
0 0 8.63127e-11 0 0 4.29359e-11 0 0 0 
0 0 2.41363e-11 0 0 0 0 0 0 
0 1.90517e-11 0 0 4.86753e-12 0 0 0 0 
0 0 0 0 3.34022e-08 0 0 2.17365e-10 0 
2.64239e-10 0 2.70238e-10 0 0 1.34393e-11 0 0 1.40881e-11 
0 0 0 0 0 5.94129e-11 0 0 0 
0 0 0 0 0 0 0 0 0 
0 7.25079e-11 0 0 0 0 0 0 0 
0 1.02788e-11 0 0 0 0 0 0 0 
0 0 0 1.14976e-10 0 0 0 1.63637e-10 0 
0 5.23822e-12 0 0 0 0 0 0 0 
0 6.89358e-11 8.9089e-12 0 1.00649e-10 4.76837e-11 0 2.15478e-10 0 
0 0 0 0 9.10304e-11 0 0 0 2.77134e-11 
0 0 0 0 0 0 0 0 0 
0 0 0 0 1.51922e-11 2.22378e-11 0 0 2.22541e-11 
0 0 0 0 2.62183e-10 0 0 1.33002e-10 0 
3.98574e-11 1.25537e-10 0 0 0 1.08249e-10 2.26011e-10 0 0 
0 0 0 0 0 0 0 0 1.3735e-11 
0 0 0 0 9.19117e-12 5.42835e-12 0 0 0 
0 0 0 0 0 0 0 0 0 
0 0 0 0 0 0 0 0 0 
0 0 0 0 0 0 0 0 0 
0 0 0 0 0 0 0 0 0 
0 0 0 0 2.25631e-11 0 0 0 0 
0 0 6.46104e-11 0 0 0 0 0 0 
0 1.16365e-11 0 0 4.66774e-11 0 8.49621e-11 0 0 
0 0 2.31976e-10 0 0 9.0951e-11 1.02498e-10 0 0 
0 0 3.47718e-11 0 0 0 0 0 0 
7.16416e-12 0 0 8.50412e-11 0 1.11909e-10 0 1.07953e-12 0 
0 0 0 0 0 0 0 0 0 
0 0 0 0 0 0 9.94107e-12 0 2.00962e-11 
0 4.86989e-10 0 0 0 6.65241e-11 0 2.36207e-11 0 
5.57674e-11 0 0 0 0 0 7.45639e-11 0 0 
0 9.24441e-11 0 0 5.10167e-11 0 0 5.24901e-11 0 
0 0 0 0 0 3.01185e-11 0 0 0 
0 0 0 0 6.61818e-12 0 0 0 0 
0 0 0 0 0 0 0 0 0 
0 3.33935e-11 4.7235e-11 0 0 0 0 0 0 
3.70913e-11 0 0 9.27813e-11 0 0 0 0 0 
0 0 0 0 0 2.84609e-11 0 5.85146e-11 0 
5.04959e-11 0 0 2.08115e-10 0 0 0 4.1091e-11 0 
6.18745e-12 0 0 0 0 0 0 0 0 
0 0 0 0 0 0 0 0 0 
2.00755e-10 1.64338e-10 2.68624e-08 0 0 1.89464e-10 0 0 0 
0 0 5.57839e-11 0 0 2.88276e-11 0 0 0 
0 0 0 1.49135e-11 0 0 0 0 0 
0 0 0 0 0 0 0 0 0 
0 0 0 0 0 0 0 0 0 
0 0 0 0 0 0 0 0 0 
0 0 0 0 0 0 0 0 0 
0 0 0 0 0 0 0 0 0 
0 0 0 0 0 0 0 4.93852e-11 0 
0 3.05757e-11 0 0 0 2.68467e-08 0 3.84826e-10 1.16265e-10 
0 0 0 0 2.70674e-10 2.95754e-10 0 0 0 
5.54716e-11 1.9943e-10 0 0 1.14358e-10 0 0 0 0 
0 0 0 0 0 0 0 0 0 
0 0 0 3.69878e-11 1.03808e-10 9.93348e-11 0 3.05118e-10 0 
0 2.49433e-11 0 0 0 0 6.03205e-11 0 0 
0 0 2.18137e-12 1.08443e-10 2.69048e-11 0 4.37578e-11 0 0 
0 0 4.52444e-11 0 1.01069e-10 5.9635e-12 2.0565e-11 0 0 
9.46159e-11 0 1.36845e-11 1.71936e-11 0 0 0 5.69529e-11 0 
0 0 0 0 0 0 0 0 0 
0 0 0 0 3.69897e-11 0 3.95778e-11 0 0 
0 0 0 0 0 0 0 0 0 
0 0 0 0 0 0 4.77411e-11 0 0 
0 0 1.22911e-10 0 0 0 0 1.50143e-11 0 
0 0 0 0 0 5.55346e-11 0 0 1.78193e-11 
1.27632e-10 0 0 0 0 0 0 0 1.87187e-10 
2.74413e-10 0 0 0 9.83097e-11 0 0 1.85403e-11 0 
1.93403e-11 0 0 0 0 0 0 0 0 
0 0 4.43942e-14 0 0 0 0 0 0 
1.12382e-10 8.60612e-11 7.53433e-11 0 0 0 0 0 0 
0 0 1.99645e-10 2.78152e-11 4.19813e-11 1.12346e-10 0 3.11676e-08 0 
0 0 0 0 0 0 0 0 0 
0 0 0 0 0 0 0 0 0 
0 0 0 0 0 0 0 0 0 
0 0 0 0 0 0 0 0 0 
0 0 0 0 0 0 0 0 0 
0 0 0 0 0 0 0 0 0 
0 0 0 0 0 0 0 2.47641e-10 4.34922e-11 
0 0 0 0 2.83284e-10 1.57975e-10 6.54221e-13 4.57037e-12 0 
0 3.7576e-11 0 1.87978e-10 0 0 0 0 0 
3.87787e-11 0 0 0 0 0 0 0 0 
0 0 0 0 0 0 0 1.28609e-10 0 
0 1.25251e-10 0 0 0 0 6.27224e-11 0 2.37981e-11 
1.29118e-11 0 0 5.43334e-11 0 3.53967e-11 0 0 0 
0 0 0 0 0 4.45702e-11 2.1432e-10 2.10459e-11 0 
0 0 0 2.55337e-11 0 0 0 2.19262e-11 0 
0 9.73507e-11 0 0 0 0 0 0 0 
0 6.20402e-11 1.36346e-10 0 0 0 0 0 2.11786e-11 
8.78195e-12 0 6.19436e-11 0 0 0 0 0 0 
1.19843e-10 0 0 0 0 0 0 0 9.35862e-11 
0 0 0 0 0 0 0 0 0 
0 0 0 0 0 0 3.45085e-11 7.84776e-11 0 
6.88938e-12 1.07e-10 0 0 0 0 0 0 0 
1.03944e-10 0 0 0 0 0 0 0 0 
0 2.65293e-08 0 0 0 0 0 4.29568e-11 0 
0 0 0 0 0 0 0 0 0 
2.63988e-11 0 0 0 1.18086e-10 0 0 0 3.2854e-10 
0 0 0 1.49705e-10 0 0 0 0 0 
0 0 8.38217e-11 0 0 0 0 0 0 
0 0 0 4.64208e-11 0 0 0 0 0 
0 0 0 0 0 0 0 0 0 
0 0 0 0 0 0 0 0 0 
0 0 0 0 0 0 0 0 0 
0 0 0 0 0 0 0 0 0 
0 0 0 0 0 1.42016e-11 0 0 0 
0 0 0 0 0 0 1.3299e-10 0 0 
0 7.20618e-11 7.82804e-11 0 0 0 0 0 0 
0 0 0 0 0 0 0 8.24155e-12 0 
0 0 0 7.66037e-11 0 0 1.09246e-11 2.10945e-11 0 
0 0 0 0 0 0 0 0 0 
0 0 2.66089e-10 2.72081e-08 0 0 0 0 0 
0 0 0 0 0 0 0 5.47668e-11 1.00771e-11 