# vtk DataFile Version 5.1
vtk output
ASCII
DATASET STRUCTURED_POINTS
DIMENSIONS 250 250 1
SPACING 1 1 1
ORIGIN 0 0 0
POINT_DATA 62500
FIELD FieldData 6
feature_1 1 62500 float
0 0 0 0 0 0 0 0 0 
0 0 0 0 0 0 0 0 0 
0 0 0 0 0 0 0 0 0 
0 0 0 0 0 0 0 0 0 
0 0 0 0 0 0 0 0 0 
0 0 0 0 0 0 0 0 0 
0 0 0 0 0 0 0 0 0 
0 0 0 0 0 0 0 0 0 
0 0 0 0 0 0 0 0 0 
0 0 0 0 0 0 0 0 0 
0 0 0 0 0 0 0 0 0 
0 0 0 0 0 0 0 0 0 
0 0 0 0 0 0 0 0 0 
0 0 0 0 0 0 0 0 0 
0 0 0 0 0 0 0 0 0 
0 0 0 0 0 0 0 0 0 
0 0 0 0 0 0 0 0 0 
0 0 0 0 0 0 0 0 0 
0 0 0 0 0 0 0 0 0 
0 0 0 0 0 0 0 0 0 
0 0 0 0 0 0 0 0 0 
0 0 0 0 0 0 0 0 0 
0 0 0 0 0 0 0 0 0 
0 0 0 0 0 0 0 0 0 
0 0 0 0 0 0 0 0 0 
0 0 0 0 0 0 0 0 0 
0 0 0 0 0 0 0 0 0 
0 0 0 0 0 0 0 0 0 
0 0 0 0 0 0 0 0 0 
0 0 0 0 0 0 0 0 0 
0 0 0 0 0 0 0 0 0 
0 0 0 0 0 0 0 0 0 
0 0 0 0 0 0 0 0 0 
0 0 0 0 0 0 0 0 0 
0 0 0 0 0 0 0 0 0 
0 0 0 0 0 0 0 0 0 
0 0 0 0 0 0 0 0 0 
0 0 0 0 0 0 0 0 0 
0 0 0 0 0 0 0 0 0 
0 0 0 0 0 0 0 0 2.3212e-12 
0 0 0 0 0 0 0 0 0 
0 0 0 0 0 0 0 0 0 
0 0 0 0 0 0 0 0 0 
0 0 0 0 0 0 0 0 0 
0 0 0 0 0 0 0 0 0 
0 0 0 0 0 0 0 0 0 
0 0 0 0 0 0 0 0 0 
0 0 0 0 0 0 0 0 0 
0 0 0 0 0 0 0 0 0 
0 0 0 0 0 0 0 0 0 
0 0 0 0 0 0 0 0 0 
0 0 0 0 0 0 0 0 0 
0 0 0 0 0 0 0 0 0 
0 0 0 0 0 0 0 0 0 
0 0 0 0 0 0 0 0 0 
0 0 0 0 0 0 0 0 0 
0 0 0 0 0 0 0 0 0 
0 0 0 0 0 0 0 0 0 
0 0 0 0 0 0 0 0 0 
0 0 0 0 0 0 0 0 0 
0 0 0 0 0 0 0 0 0 
0 0 0 0 0 0 0 0 0 
0 0 0 0 0 0 0 0 0 
0 0 0 0 0 0 0 0 0 
0 0 0 0 0 0 0 0 0 
0 0 0 0 0 0 0 0 0 
0 0 0 0 0 0 0 0 0 
0 0 0 0 0 0 0 0 0 
0 0 0 0 0 0 0 0 0 
0 0 0 0 0 0 0 0 0 
0 0 0 0 0 0 0 0 0 
0 0 0 0 0 0 0 0 0 
0 0 0 0 0 0 0 0 0 
0 0 0 0 0 0 0 0 0 
0 0 0 0 0 0 0 0 0 
0 0 0 0 0 0 0 0 0 
0 0 0 0 0 0 0 0 0 
0 0 0 0 0 0 0 0 0 
0 0 0 0 0 0 0 0 0 
0 0 0 0 0 0 0 0 0 
0 0 0 0 0 0 0 0 0 
0 0 0 0 0 0 0 0 0 
0 0 0 0 0 0 0 0 0 
0 0 0 0 0 0 0 0 0 
0 0 0 0 0 0 0 0 0 
0 0 0 0 0 0 0 0 0 
0 0 0 0 0 0 0 0 0 
0 0 0 0 0 0 0 0 0 
0 0 0 0 0 0 0 0 0 
0 0 0 0 0 0 0 0 0 
0 0 0 0 0 0 0 0 0 
0 0 0 0 0 0 0 0 0 
0 0 0 0 0 0 0 0 0 
0 0 0 0 0 0 0 0 0 
0 0 0 0 0 0 0 0 0 
0 0 0 0 0 0 0 0 0 
0 0 0 0 0 0 0 0 0 
0 0 0 0 0 0 0 0 0 
0 0 0 0 0 0 0 0 0 
0 0 0 0 0 0 0 0 0 
0 0 0 0 0 0 0 0 0 
0 0 0 0 0 0 0 0 0 
0 0 0 0 0 0 0 0 0 
0 0 0 0 0 0 0 0 0 
0 0 0 0 0 0 0 0 0 
0 0 0 0 0 0 0 0 0 
0 0 0 0 0 0 0 0 0 
0 0 0 0 0 0 0 0 0 
0 0 0 0 0 0 0 0 0 
0 0 0 0 0 0 0 0 0 
0 0 0 0 0 0 0 0 0 
0 0 0 0 0 0 0 0 0 
0 0 0 0 0 0 0 0 0 
0 0 0 0 0 0 0 0 0 
0 0 0 0 0 0 0 0 0 
0 0 0 0 0 0 0 0 0 
0 0 0 0 0 0 0 0 0 
0 0 0 0 0 0 0 0 0 
0 0 0 0 0 0 0 0 0 
0 0 0 0 0 0 0 0 0 
0 0 0 0 0 0 0 0 0 
0 0 0 0 0 0 0 0 0 
0 0 0 0 0 0 0 0 0 
0 0 0 0 0 0 0 0 0 
0 0 0 0 0 0 0 0 0 
0 0 0 0 0 0 0 0 0 
0 0 0 0 0 0 0 0 0 
0 0 0 0 0 0 0 0 0 
0 0 0 0 0 0 0 0 0 
0 0 0 0 0 0 0 0 0 
0 0 0 0 0 0 0 0 0 
0 0 0 0 0 0 0 0 0 
0 0 0 0 0 0 0 0 0 
0 0 0 0 0 0 0 0 0 
0 0 0 0 0 0 0 0 0 
0 0 0 0 0 0 0 0 0 
0 0 0 0 0 0 0 0 0 
0 0 0 0 0 0 0 0 0 
0 0 0 0 0 0 0 0 0 
0 0 0 0 4.04189e-13 0 0 0 0 
0 0 0 0 0 0 0 0 0 
0 0 0 0 0 0 0 0 0 
0 0 0 0 0 0 0 0 0 
0 0 0 0 0 0 0 0 0 
0 0 0 0 0 0 0 0 0 
0 0 0 0 0 0 0 0 0 
0 0 0 0 0 0 0 0 0 
0 0 0 0 0 0 0 0 0 
0 0 0 0 0 0 0 0 0 
0 0 0 0 0 0 0 0 0 
0 0 0 0 0 0 0 0 0 
0 0 0 0 0 0 0 0 0 
0 0 0 0 0 0 0 0 0 
0 0 0 0 0 0 0 0 0 
0 0 0 0 0 0 0 0 0 
0 0 0 0 0 0 0 0 0 
0 0 0 0 0 0 0 0 0 
0 0 0 0 0 3.45537e-13 0 0 0 
0 0 0 0 0 0 0 0 0 
0 0 0 0 0 0 0 0 0 
0 0 0 0 0 0 0 0 0 
0 0 0 0 0 0 0 0 0 
0 0 0 0 0 0 0 0 0 
0 0 0 0 0 0 0 0 0 
0 0 0 0 0 0 0 0 0 
0 0 0 0 0 0 0 0 0 
0 0 0 0 0 0 0 0 0 
0 0 0 0 0 0 0 0 0 
0 0 0 0 0 0 0 0 0 
0 0 0 0 0 0 0 0 0 
0 0 0 0 0 0 0 0 0 
0 0 0 0 0 0 0 0 0 
0 0 0 0 0 0 0 0 0 
0 0 0 0 0 0 0 0 0 
0 0 0 0 0 0 0 0 0 
0 0 0 0 0 0 0 0 0 
0 0 0 0 0 0 0 0 0 
0 0 0 0 0 0 0 0 0 
0 0 0 0 0 0 0 0 0 
0 0 0 0 0 0 0 0 0 
0 0 0 0 0 0 0 0 0 
0 0 0 0 0 0 0 0 0 
0 0 0 0 0 0 0 0 0 
0 0 0 0 0 0 0 0 0 
0 0 0 0 0 0 0 0 0 
0 0 0 0 0 0 0 0 0 
0 0 0 0 0 0 0 0 0 
0 0 0 0 0 0 0 0 0 
0 0 0 0 0 0 0 0 0 
0 0 0 0 0 0 0 0 0 
0 0 0 0 0 0 0 0 0 
0 0 0 0 0 0 0 0 0 
0 0 0 0 0 0 0 0 0 
0 0 0 0 0 0 2.75171e-12 0 0 
0 0 0 0 0 0 0 0 0 
1.64214e-13 0 0 0 0 0 0 0 0 
0 0 0 0 0 0 0 0 0 
0 0 0 0 0 0 0 0 0 
0 0 0 0 0 0 0 0 0 
0 0 0 0 0 0 0 0 0 
0 0 0 0 0 0 0 0 0 
0 0 0 0 0 0 0 0 0 
0 0 0 0 0 0 0 0 0 
0 0 0 0 0 0 0 0 0 
0 0 0 0 0 0 0 0 0 
0 0 0 0 0 0 0 0 0 
0 0 0 0 0 0 0 0 0 
0 0 0 0 0 0 0 0 0 
0 0 0 0 0 0 0 0 0 
0 0 0 0 0 0 0 0 0 
0 0 0 0 0 0 0 0 0 
0 0 0 0 0 0 0 0 0 
0 0 0 0 0 0 0 0 0 
0 0 0 0 0 0 0 0 0 
0 0 0 0 0 0 0 0 0 
0 0 0 0 0 0 0 0 0 
0 0 0 0 0 0 0 0 0 
0 0 0 0 0 0 0 0 0 
0 0 0 0 0 0 0 0 0 
0 0 0 0 0 0 0 0 0 
0 0 0 0 0 0 0 0 0 
0 0 0 0 0 0 0 0 0 
0 0 0 0 0 0 0 0 0 
0 0 0 0 0 0 0 0 0 
0 0 0 0 0 0 0 0 0 
0 0 0 0 0 0 0 0 0 
0 0 0 0 0 0 0 0 0 
0 0 0 0 0 0 0 0 0 
0 0 0 0 0 0 0 0 0 
0 0 0 0 0 0 0 0 0 
0 0 0 0 0 0 0 0 0 
0 0 0 0 0 0 0 0 0 
0 0 0 0 0 0 0 0 0 
0 0 0 0 0 0 0 0 0 
0 0 0 0 0 0 0 0 0 
0 0 0 0 0 0 0 0 0 
0 0 0 0 0 0 0 0 0 
0 0 0 0 0 0 0 0 0 
0 0 0 0 0 0 0 0 0 
0 0 0 0 0 0 0 0 0 
0 0 0 0 0 0 0 0 0 
0 0 0 0 0 0 0 0 0 
0 0 0 0 0 0 0 0 0 
0 0 0 0 0 0 0 0 0 
0 0 0 0 0 0 0 0 0 
0 0 0 0 0 0 0 0 0 
0 0 0 0 0 0 0 0 0 
0 0 0 0 0 0 0 0 0 
0 0 0 0 0 0 0 0 0 
0 0 0 0 0 0 0 0 0 
0 0 0 0 0 0 0 0 0 
0 0 0 0 0 0 0 0 0 
0 0 0 0 0 0 0 0 0 
0 0 0 0 0 0 0 0 0 
0 0 0 0 0 0 0 0 0 
0 0 0 0 0 0 0 0 0 
0 0 0 0 0 0 0 0 0 
0 0 0 0 0 0 0 0 0 
0 0 0 0 0 0 0 0 0 
0 0 0 0 0 0 0 0 0 
0 0 0 0 0 0 0 0 0 
0 0 0 0 0 0 0 0 0 
0 0 0 0 0 0 0 0 0 
0 0 0 0 0 0 0 0 0 
0 0 0 0 0 0 0 0 0 
0 0 0 0 0 0 0 0 0 
0 0 0 0 0 0 0 0 0 
0 0 0 0 0 0 0 0 0 
0 0 0 0 0 0 0 0 0 
0 0 0 0 0 0 0 0 0 
0 0 0 0 0 0 0 0 0 
0 0 0 0 0 0 0 0 0 
0 0 0 0 0 0 0 0 0 
0 0 0 0 0 0 0 0 0 
0 0 0 0 0 0 0 0 0 
4.09889e-13 0 0 0 0 0 0 0 0 
0 0 0 0 0 0 0 0 0 
0 0 0 0 0 0 0 0 0 
0 0 0 0 0 0 0 0 0 
0 0 0 0 0 0 0 0 0 
0 0 0 0 0 0 0 0 0 
0 0 0 0 0 0 0 0 0 
0 0 0 0 0 0 0 0 0 
0 0 0 0 0 0 0 0 0 
0 0 0 0 0 0 0 0 0 
0 0 0 0 0 0 0 0 0 
0 0 0 0 0 0 0 0 0 
0 0 0 0 0 0 0 0 0 
0 0 0 0 0 0 0 0 0 
0 0 0 0 0 0 0 0 0 
0 0 0 0 0 0 0 0 0 
0 0 0 0 0 0 0 0 0 
0 0 0 0 0 0 0 0 0 
0 0 0 0 0 0 0 0 0 
0 0 0 0 0 0 0 0 0 
0 0 0 0 0 0 0 0 0 
0 0 0 0 0 0 0 0 0 
0 0 0 0 0 0 0 0 0 
0 0 0 0 0 0 0 0 0 
0 0 0 0 0 0 0 0 0 
0 0 0 0 0 0 0 0 0 
0 0 0 0 0 0 0 0 0 
0 0 0 0 0 0 0 0 0 
0 0 0 0 0 0 0 0 0 
0 0 0 0 0 0 0 0 0 
0 0 0 0 0 0 0 0 0 
0 0 0 0 0 0 0 0 0 
0 0 0 0 0 0 0 0 0 
0 0 0 0 0 0 0 0 0 
0 0 0 0 0 0 0 0 0 
1.97326e-13 0 0 0 0 0 0 0 0 
0 0 0 0 0 0 0 0 0 
0 0 0 0 0 0 0 0 0 
0 0 0 0 0 0 0 0 0 
0 0 0 0 0 0 0 0 0 
0 0 0 0 0 0 0 0 0 
0 0 0 0 0 0 0 0 0 
0 0 0 0 0 0 0 0 0 
0 0 0 0 0 0 0 0 0 
0 0 0 0 0 0 0 0 0 
0 0 0 0 0 0 0 0 0 
0 0 0 0 0 0 0 0 0 
0 0 0 0 0 0 0 0 0 
0 0 0 0 0 0 0 0 0 
0 0 0 0 0 0 0 0 0 
0 0 0 0 0 0 0 0 0 
0 0 0 0 0 0 0 0 0 
0 0 0 0 0 0 0 0 0 
0 0 0 0 0 0 0 0 0 
0 0 0 0 0 0 0 0 0 
0 0 0 0 0 0 0 0 0 
0 0 0 0 0 0 0 0 0 
0 0 0 0 0 0 0 0 0 
0 0 0 0 0 0 0 0 0 
0 0 0 0 0 0 0 0 0 
0 0 0 0 0 0 0 0 0 
0 0 0 0 0 0 0 0 0 
0 0 0 0 0 0 0 0 0 
0 0 0 0 0 0 0 0 0 
0 0 0 0 0 0 0 0 0 
0 0 0 0 0 0 0 0 0 
0 0 0 0 0 0 0 0 0 
0 0 0 0 0 0 0 0 0 
0 0 0 0 0 0 0 0 0 
0 0 0 0 0 0 0 0 0 
0 0 0 0 0 0 0 0 0 
0 0 0 0 0 0 0 0 0 
0 0 0 0 0 0 0 0 0 
0 0 0 0 0 0 0 0 0 
0 0 0 0 0 0 0 0 0 
0 0 0 0 0 0 0 0 0 
0 0 0 0 0 0 0 0 0 
0 0 0 0 0 0 0 0 0 
0 0 0 0 0 0 0 0 0 
0 0 0 0 0 0 0 0 0 
0 0 0 0 0 0 0 0 0 
0 0 0 0 0 0 0 0 0 
0 0 0 0 0 0 0 0 0 
0 0 0 0 0 0 0 0 0 
0 0 0 0 0 0 0 0 0 
0 0 0 0 0 0 0 0 0 
0 0 0 0 0 0 0 0 0 
0 0 0 0 0 0 0 0 0 
0 0 0 0 0 0 0 0 0 
0 0 0 0 0 0 0 0 0 
0 0 0 0 1.39905e-15 0 0 0 0 
0 0 0 0 0 0 0 0 0 
0 0 0 0 0 0 0 0 0 
0 0 0 0 0 0 0 0 0 
0 0 0 0 0 0 0 0 0 
0 0 0 0 0 0 0 0 0 
0 0 0 0 0 0 0 0 0 
0 0 0 0 0 0 0 0 0 
0 0 0 0 0 0 0 0 0 
0 0 0 0 0 0 0 0 0 
0 0 0 0 0 0 0 0 0 
0 0 0 0 0 0 0 0 0 
0 0 0 0 0 0 0 0 0 
0 0 0 0 0 0 0 0 0 
0 0 0 0 0 0 0 0 0 
0 0 0 0 0 0 0 0 0 
0 0 0 0 0 0 0 0 0 
0 0 0 0 0 0 0 0 0 
0 0 0 0 0 0 0 0 0 
0 0 0 0 0 0 0 0 0 
0 0 0 0 0 0 0 0 0 
0 0 0 0 0 0 0 0 0 
2.14752e-13 0 0 0 0 0 0 0 0 
0 0 0 0 0 0 0 0 0 
0 0 0 0 0 0 0 0 0 
0 0 0 0 0 0 0 0 0 
0 0 0 0 0 0 0 0 0 
0 0 0 0 0 0 0 0 0 
0 0 0 0 0 0 0 0 0 
0 0 0 0 0 0 0 0 0 
0 0 0 0 0 0 0 0 0 
0 0 0 0 0 0 0 0 0 
0 0 0 0 0 0 0 0 0 
0 0 0 0 0 0 0 0 0 
0 0 0 0 0 0 0 0 0 
0 0 0 0 0 0 0 0 0 
0 0 0 0 0 0 0 0 0 
0 0 0 0 0 0 0 0 0 
0 0 0 0 0 0 0 0 0 
0 0 0 0 0 0 0 0 0 
0 0 0 0 0 0 0 0 0 
0 0 0 0 0 0 0 0 0 
0 0 0 0 0 0 0 0 0 
0 2.45005e-13 0 0 0 0 0 0 0 
0 0 0 0 0 0 0 0 0 
0 0 0 0 0 0 0 0 0 
0 0 0 0 0 0 0 0 0 
0 0 0 0 0 0 0 0 0 
0 0 0 0 0 0 0 0 0 
0 0 0 0 0 0 0 0 0 
0 0 0 0 0 0 0 0 0 
0 0 0 0 0 0 0 0 0 
0 0 0 0 0 0 0 0 0 
0 0 0 0 0 0 0 0 0 
0 0 0 0 0 0 0 0 0 
0 0 0 0 0 0 0 0 0 
0 0 0 0 0 0 0 0 0 
0 0 0 0 0 0 0 0 0 
0 0 0 0 0 0 0 0 0 
0 0 0 0 0 0 0 0 0 
0 0 0 0 0 0 0 0 0 
0 0 0 0 0 0 0 0 0 
0 0 0 0 0 0 0 0 0 
0 0 0 0 0 0 0 0 0 
0 0 0 0 0 0 0 0 0 
0 0 0 0 0 0 0 0 0 
0 0 0 0 0 0 0 0 0 
0 0 0 0 0 0 0 0 0 
0 0 0 0 0 0 0 0 0 
0 0 0 0 0 0 0 0 0 
0 0 0 0 0 0 0 0 0 
0 0 0 0 0 0 0 0 0 
0 0 0 0 0 0 0 0 0 
0 0 0 0 0 0 0 0 0 
0 0 0 0 0 0 0 0 0 
0 0 0 0 0 0 0 0 0 
0 0 0 0 0 0 0 0 0 
0 0 0 0 0 0 0 0 0 
0 0 0 0 0 0 0 0 0 
0 0 0 0 0 0 0 0 0 
0 0 0 0 0 0 0 0 0 
0 0 0 0 0 0 0 0 0 
0 0 0 0 0 0 0 0 0 
0 0 0 0 0 0 0 0 0 
0 0 0 0 0 0 0 0 0 
0 0 0 0 0 0 0 0 0 
0 0 0 0 0 0 0 0 0 
1.06332e-12 0 0 0 0 0 0 0 0 
0 0 0 0 0 0 0 0 0 
0 0 0 0 0 0 0 0 0 
0 0 0 0 0 0 0 0 0 
0 0 0 0 0 0 0 0 0 
0 0 0 0 0 0 0 0 0 
0 0 0 0 0 0 0 0 0 
0 0 0 0 0 0 0 0 0 
0 0 0 0 4.46139e-12 0 0 0 0 
0 0 0 0 0 0 0 0 0 
0 0 0 0 0 0 0 0 0 
0 0 0 0 0 0 0 0 0 
0 0 0 0 0 0 0 0 0 
0 0 0 0 0 0 0 0 0 
0 0 0 0 0 0 0 0 0 
0 0 0 0 0 0 0 0 0 
0 0 0 0 0 0 0 0 0 
0 0 0 0 0 0 0 0 0 
0 0 0 0 0 0 0 0 0 
0 0 0 0 0 0 0 0 0 
0 0 0 0 0 0 0 0 0 
0 0 0 0 0 0 0 0 0 
0 0 0 0 0 0 0 0 0 
0 0 0 0 0 0 0 0 0 
0 0 0 0 0 0 0 0 0 
0 0 0 0 0 0 0 0 0 
0 0 0 0 0 0 0 0 0 
0 0 0 0 0 0 0 0 0 
0 0 0 0 0 0 0 0 0 
0 0 0 0 0 0 0 0 0 
0 0 0 0 0 0 0 0 0 
0 0 0 0 0 0 0 0 0 
0 0 0 0 0 0 0 0 0 
0 0 0 0 0 0 0 0 0 
0 0 0 0 0 0 0 0 0 
0 0 0 0 0 0 0 0 0 
0 0 0 0 0 0 0 0 0 
0 0 0 5.09133e-12 0 0 0 0 0 
0 0 0 0 0 0 0 0 0 
0 0 0 0 0 0 0 0 0 
0 0 0 0 0 0 0 0 0 
0 0 0 0 0 0 0 0 0 
0 0 0 0 0 0 0 0 0 
0 0 0 0 0 0 0 0 0 
0 0 0 0 0 0 0 0 0 
0 0 0 0 0 0 0 0 0 
0 0 0 0 0 0 0 0 0 
0 0 0 0 0 0 0 0 0 
0 0 0 0 0 0 0 0 0 
0 0 0 0 0 0 0 0 0 
0 0 0 0 0 0 0 0 0 
0 0 0 0 0 0 0 0 4.06227e-13 
0 0 0 0 0 0 0 0 0 
0 0 0 0 0 0 0 0 0 
0 0 0 0 1.8864e-12 0 0 0 0 
0 0 0 0 0 0 0 0 1.03703e-11 
0 0 0 0 0 0 0 0 0 
0 0 0 0 0 0 0 0 0 
0 0 0 2.01327e-12 0 0 0 0 0 
0 0 0 0 0 0 0 0 0 
0 0 0 5.87534e-12 0 0 0 0 0 
0 0 0 0 0 0 0 0 0 
0 0 0 0 0 0 0 0 0 
0 0 0 0 0 0 0 0 0 
0 0 0 0 0 0 0 0 0 
0 0 0 0 0 0 0 0 0 
0 0 0 0 0 0 0 0 0 
0 0 0 0 0 0 0 0 0 
0 0 0 0 0 0 0 0 0 
0 0 0 0 0 0 0 0 0 
0 0 0 0 0 0 0 0 0 
0 0 0 0 0 0 0 0 0 
0 0 0 0 0 0 0 0 0 
0 0 0 0 0 0 0 0 0 
9.77864e-15 0 0 0 0 0 0 0 0 
0 0 0 0 0 0 0 0 0 
0 0 0 0 0 0 0 0 0 
0 0 0 0 0 0 0 0 0 
0 0 0 0 0 0 0 0 0 
0 0 0 0 0 0 0 0 0 
0 0 0 0 0 0 0 0 0 
0 3.07322e-13 0 0 0 0 0 0 0 
0 0 0 0 0 4.67119e-12 0 0 0 
0 0 0 0 0 0 0 0 0 
0 0 0 0 0 0 0 0 0 
0 0 0 0 0 0 0 0 5.88706e-13 
0 0 0 0 0 0 0 0 0 
0 0 0 0 0 0 0 0 0 
0 0 0 0 0 0 0 1.19284e-12 0 
0 0 0 0 0 0 0 0 0 
0 0 0 0 0 0 0 0 0 
0 0 0 0 0 0 0 0 0 
0 0 0 0 0 2.70281e-12 0 0 0 
0 0 0 0 0 0 0 0 0 
0 0 0 0 0 0 0 0 0 
0 0 0 0 0 0 0 0 0 
0 0 0 0 0 0 0 0 0 
0 0 0 0 0 0 0 0 0 
0 0 0 0 0 0 0 0 0 
0 0 0 0 0 0 0 0 0 
0 0 0 0 0 0 0 0 0 
0 0 0 0 0 0 0 0 0 
0 0 0 0 0 0 0 0 0 
0 0 0 0 0 0 0 0 0 
0 0 0 0 0 0 0 0 0 
0 0 0 0 0 0 0 0 0 
0 0 0 0 0 0 0 0 0 
0 0 0 0 0 0 0 0 0 
0 0 0 0 0 0 0 0 0 
0 0 0 0 0 0 0 0 0 
0 0 0 0 0 0 0 0 0 
1.78931e-11 0 0 0 2.51189e-11 8.6939e-12 0 0 0 
0 0 0 0 0 0 0 0 0 
0 1.91429e-11 0 0 0 0 0 0 1.47821e-11 
0 0 0 0 0 0 0 0 0 
0 0 0 0 0 0 0 0 0 
0 0 0 0 0 0 0 0 0 
0 0 0 0 0 0 0 0 0 
0 0 0 0 0 0 0 0 0 
0 0 0 0 0 0 0 0 0 
0 0 0 0 0 0 0 0 0 
0 0 0 0 0 0 0 0 0 
0 0 0 0 0 0 0 0 0 
0 0 0 0 0 0 0 0 0 
0 0 0 0 0 0 0 0 0 
0 0 0 0 0 0 0 0 0 
0 3.69145e-12 0 0 0 0 0 0 0 
0 0 0 0 0 0 0 0 0 
0 0 0 0 0 0 0 0 0 
0 0 0 0 0 0 0 0 0 
0 0 0 0 0 0 0 0 0 
0 2.98256e-13 0 0 0 0 1.0784e-12 0 0 
0 0 0 0 0 0 0 0 0 
0 0 0 0 0 0 0 0 0 
0 0 0 0 0 2.28301e-12 0 0 0 
0 0 0 0 0 0 0 0 0 
0 0 0 0 0 0 0 0 0 
0 0 7.1787e-12 0 0 0 0 0 0 
0 0 0 0 0 1.59077e-11 1.29765e-11 0 0 
0 0 0 0 0 0 0 0 0 
0 0 2.83062e-13 0 0 0 0 0 0 
0 0 0 0 0 0 0 0 0 
4.46068e-12 0 0 0 0 2.43451e-11 0 0 0 
0 0 0 0 0 1.33085e-11 0 0 0 
0 0 0 0 0 0 0 0 0 
0 0 0 0 0 0 0 0 0 
0 0 0 0 0 0 0 0 0 
0 0 0 0 0 1.17419e-11 0 1.54761e-11 0 
0 0 0 0 0 0 0 0 0 
0 0 0 0 0 0 0 0 0 
0 0 0 0 0 0 0 0 0 
0 0 0 0 0 0 0 0 0 
0 0 0 0 0 0 0 0 0 
0 0 0 0 0 0 0 0 0 
0 0 0 0 0 0 0 6.01787e-12 0 
0 0 0 0 0 0 0 0 0 
0 0 0 0 0 0 0 0 0 
0 0 0 0 0 0 0 0 0 
0 0 0 0 0 0 0 0 0 
0 0 0 0 0 0 0 0 0 
0 0 0 0 0 0 0 0 0 
0 0 0 0 0 0 0 0 0 
0 0 0 0 0 0 0 0 0 
0 0 0 0 0 0 0 0 0 
0 0 0 0 0 0 0 0 3.47002e-12 
0 0 0 0 0 0 0 0 0 
0 0 0 0 0 1.80614e-11 0 2.49759e-11 0 
0 0 0 0 0 0 0 0 0 
0 0 0 0 2.32394e-11 0 3.01569e-11 0 0 
7.91225e-12 0 0 0 0 0 0 0 0 
2.67655e-11 0 0 0 0 0 0 0 0 
0 1.32259e-11 1.77188e-11 0 0 0 0 0 0 
0 0 0 0 0 0 0 0 0 
0 0 0 0 3.76918e-12 0 0 0 0 
0 0 0 0 0 0 4.97003e-12 0 0 
0 0 0 0 0 0 0 0 0 
0 0 0 0 0 0 0 0 0 
0 0 0 0 0 0 0 0 0 
0 0 0 0 0 0 0 0 0 
0 0 0 0 0 0 0 0 0 
0 0 0 0 0 0 0 0 0 
0 0 0 0 0 0 0 0 0 
0 0 7.53415e-12 0 0 0 0 0 0 
0 0 0 0 0 0 0 0 0 
0 0 0 0 0 0 0 0 0 
0 0 0 0 0 0 0 0 0 
0 0 0 0 0 0 0 0 0 
0 0 0 0 0 0 0 0 0 
0 0 0 0 0 0 0 0 0 
0 0 0 0 0 0 0 0 0 
0 0 0 0 0 0 0 0 0 
0 0 0 0 0 0 0 0 0 
0 0 9.7598e-12 2.0077e-11 0 0 0 5.53797e-12 0 
0 0 0 0 0 0 0 0 0 
0 2.72935e-11 0 4.78708e-12 0 0 0 0 0 
0 0 1.10073e-11 0 0 0 0 0 0 
0 0 0 0 0 0 0 0 0 
0 0 0 0 0 0 0 6.52048e-12 0 
0 0 0 0 7.70055e-13 0 0 0 0 
0 2.91856e-11 0 0 0 0 0 0 0 
8.90997e-12 0 0 0 0 0 0 0 0 
0 0 0 0 0 0 0 0 0 
9.37611e-12 0 0 0 0 0 0 6.06755e-12 0 
0 0 0 0 0 0 1.58982e-11 0 0 
0 0 0 0 0 0 0 0 0 
0 0 0 0 0 0 0 0 0 
0 6.68827e-13 0 0 0 0 0 0 0 
0 0 0 0 0 0 0 0 0 
0 0 0 0 0 0 0 0 0 
0 0 0 0 0 0 0 0 9.33935e-12 
0 0 0 1.79362e-11 0 0 0 0 0 
0 0 0 0 0 0 0 0 0 
0 0 0 0 0 0 0 0 0 
0 0 0 0 0 0 0 0 0 
0 0 0 0 0 0 2.06861e-13 0 0 
0 0 0 0 0 0 0 0 0 
0 0 0 0 0 0 0 0 0 
0 0 0 0 0 0 0 0 0 
0 0 0 0 0 0 0 0 0 
0 0 0 0 0 0 0 0 0 
0 0 0 0 0 0 0 0 0 
0 0 1.33462e-11 1.38686e-11 0 1.4581e-11 0 0 0 
3.88749e-11 0 3.35761e-11 0 0 0 0 0 0 
2.52973e-11 0 0 0 0 0 0 0 0 
0 2.61318e-11 0 0 0 0 0 5.40329e-11 0 
0 0 0 0 0 0 0 0 0 
0 0 0 0 0 0 0 0 0 
3.81457e-11 0 0 6.12318e-12 0 1.3969e-11 0 0 0 
0 0 0 0 0 0 1.18242e-11 0 0 
0 0 0 0 0 0 0 0 0 
2.74895e-11 0 0 0 0 0 0 0 0 
0 0 0 0 0 0 0 0 0 
0 0 0 9.13316e-12 0 0 1.51064e-11 0 0 
0 0 0 0 0 0 0 0 0 
0 0 0 0 0 0 0 0 0 
0 0 0 0 0 0 0 0 0 
0 0 0 0 0 0 0 0 0 
0 0 0 4.61779e-13 0 0 0 0 0 
0 0 0 0 0 0 0 0 0 
5.34065e-12 0 0 0 0 0 0 0 0 
0 0 0 0 0 0 0 0 0 
0 0 0 0 0 0 0 0 0 
0 0 0 0 0 0 0 0 0 
0 0 0 0 0 0 0 0 0 
0 0 0 0 0 0 0 0 0 
0 0 0 0 0 0 0 0 0 
0 0 0 0 0 0 9.18306e-12 0 0 
2.868e-11 0 3.80199e-11 0 0 0 0 0 0 
0 0 0 0 0 0 0 0 0 
0 0 0 0 1.73463e-11 0 2.49745e-11 0 0 
2.18761e-11 2.70256e-11 0 0 0 4.23622e-11 0 0 0 
0 0 0 0 0 0 0 0 0 
0 0 0 1.92709e-11 7.26713e-11 0 0 3.01389e-11 0 
4.85864e-11 0 0 0 0 0 0 0 0 
0 2.96045e-11 0 4.7667e-11 0 0 0 0 0 
0 0 0 0 9.23699e-12 0 0 0 1.35436e-11 
0 0 0 0 0 0 0 0 0 
0 0 0 0 0 0 0 0 0 
0 0 0 5.81275e-11 1.89476e-11 0 0 0 0 
0 0 0 0 6.68245e-12 0 0 0 0 
0 9.71078e-12 0 0 0 0 0 0 0 
0 0 1.18183e-11 0 0 0 0 0 0 
0 0 0 0 0 0 0 0 0 
0 0 0 0 0 0 0 0 0 
0 0 0 0 0 0 0 0 0 
0 0 0 0 0 2.60831e-12 0 0 3.17111e-11 
0 0 0 0 0 0 0 0 0 
0 0 0 0 0 0 0 0 0 
0 0 0 0 0 0 0 0 0 
0 0 0 0 0 0 0 0 0 
0 0 0 0 0 0 0 0 0 
0 0 0 0 0 0 0 0 0 
0 0 0 0 0 0 0 0 0 
0 0 0 0 0 0 0 0 0 
0 0 0 0 0 0 0 0 0 
3.05285e-11 0 0 0 5.56563e-11 0 0 0 0 
0 0 0 0 0 0 0 0 0 
0 0 1.53689e-11 2.24604e-11 0 0 0 0 0 
0 0 0 0 2.15188e-11 0 0 0 0 
0 0 0 0 0 7.55514e-11 0 0 8.57373e-12 
2.31885e-11 0 6.27448e-11 1.03937e-10 0 0 0 0 0 
0 0 0 0 0 0 0 0 0 
4.43424e-11 4.54851e-11 0 0 6.16707e-11 0 0 0 0 
4.17365e-11 0 0 0 0 3.11227e-14 0 0 0 
0 0 0 0 2.59099e-11 0 0 0 0 
0 4.23336e-12 0 0 0 0 0 0 0 
0 0 0 2.76095e-12 4.63811e-11 0 0 1.06708e-11 0 
9.67069e-12 0 0 1.93498e-11 0 0 0 0 0 
0 0 0 0 0 0 0 0 0 
0 1.12781e-11 1.40609e-12 0 0 0 0 0 0 
0 2.53404e-11 0 0 0 0 0 0 0 
0 0 0 0 0 0 0 0 0 
0 0 0 0 0 0 0 8.89851e-12 0 
0 1.68886e-11 0 0 0 0 0 0 0 
0 0 0 0 7.93131e-12 0 0 0 0 
0 0 0 0 0 0 0 0 0 
0 0 0 0 0 0 0 0 0 
0 0 0 0 0 0 0 0 0 
0 0 0 0 0 0 0 0 0 
0 0 0 0 0 0 0 0 0 
0 0 0 0 0 0 0 0 0 
0 0 0 0 0 1.67555e-11 0 0 0 
0 9.65773e-13 0 0 8.49817e-12 0 0 0 0 
0 0 4.05707e-11 0 0 0 0 5.39689e-11 0 
0 0 0 0 0 2.10867e-11 0 0 0 
0 0 0 0 8.78928e-11 0 2.02947e-10 0 0 
0 0 4.8543e-11 3.89032e-11 1.51343e-11 0 0 2.75261e-11 0 
0 0 0 0 0 8.41071e-12 0 0 7.70701e-11 
0 0 0 0 0 0 8.25316e-11 0 0 
0 0 0 0 7.52062e-11 0 0 5.99403e-11 0 
0 0 0 0 0 2.39593e-11 0 0 0 
3.43344e-11 0 0 0 0 0 2.20246e-11 0 0 
0 0 0 0 0 0 0 0 5.40735e-11 
0 0 0 0 8.50238e-11 0 1.35054e-10 0 0 
0 3.68926e-11 0 0 0 0 3.21365e-11 0 0 
6.25163e-11 0 4.69689e-11 0 0 2.52158e-11 0 0 0 
0 0 0 0 2.2763e-11 0 0 3.66905e-11 0 
0 0 1.93142e-11 3.11008e-11 0 0 0 0 0 
0 0 0 0 0 0 0 0 0 
0 0 0 0 0 0 0 0 0 
0 0 0 0 0 0 0 0 0 
0 0 1.97459e-11 3.96513e-12 0 0 0 3.38456e-11 0 
0 0 0 0 0 0 0 0 0 
0 0 0 0 0 0 0 0 0 
0 0 0 0 0 0 0 0 0 
0 0 0 0 0 0 0 0 0 
0 0 0 0 0 0 0 0 0 
0 0 0 0 0 0 0 0 0 
0 0 0 0 0 0 0 3.76718e-11 0 
0 0 0 0 5.95791e-12 4.77901e-12 0 0 0 
0 0 0 0 0 4.75207e-11 0 0 0 
0 2.35525e-10 0 0 6.3018e-11 0 0 0 0 
4.86923e-12 0 0 1.74911e-11 0 0 0 0 0 
0 0 0 2.0135e-10 2.43288e-08 0 0 0 4.27255e-11 
0 2.75344e-11 0 0 0 0 0 0 0 
0 0 0 0 2.44698e-10 0 0 0 3.40272e-11 
0 1.37906e-11 0 2.42342e-11 0 0 0 0 6.24108e-11 
0 0 2.74083e-12 0 0 0 0 0 0 
0 0 0 0 0 0 0 0 3.78069e-11 
0 0 1.9045e-11 0 1.63648e-11 0 0 0 0 
0 0 5.04284e-11 0 0 0 0 0 0 
0 0 5.73154e-11 6.73682e-11 0 0 0 0 0 
1.25358e-10 1.10495e-11 0 0 0 9.54297e-11 5.09429e-11 0 0 
0 0 0 0 0 0 0 0 0 
0 2.30811e-11 0 0 0 0 0 0 0 
1.82915e-11 0 0 0 0 2.58219e-11 0 0 0 
0 0 0 0 0 0 0 0 0 
0 0 0 4.17431e-13 0 0 0 1.07259e-11 0 
0 0 1.94516e-11 0 0 3.44807e-11 0 0 0 
0 0 0 6.68854e-11 0 3.44446e-11 0 0 0 
0 0 0 0 0 0 3.47766e-12 0 0 
0 0 0 0 0 0 0 0 0 
4.35017e-14 0 0 0 0 0 0 0 0 
0 0 0 0 0 0 0 0 0 
0 0 0 0 0 0 0 0 0 
0 0 0 0 0 0 0 0 0 
0 0 0 0 1.32648e-11 1.16143e-11 0 0 5.87418e-11 
0 0 0 4.57675e-11 7.60941e-12 3.06817e-11 0 0 0 
0 0 0 0 0 0 0 0 0 
0 4.08624e-11 0 0 0 2.36319e-11 7.05233e-11 0 8.55379e-12 
0 1.14804e-11 0 0 9.27385e-12 2.05746e-11 4.92154e-11 0 0 
0 0 0 1.78657e-10 0 0 4.66458e-11 0 2.46873e-11 
0 0 0 0 0 0 0 2.27159e-11 4.95465e-11 
2.9448e-11 1.2873e-10 2.5481e-08 0 0 0 0 0 0 
2.70116e-11 0 0 0 2.64908e-08 0 0 1.28769e-10 0 
0 2.00494e-12 6.05464e-11 0 2.32746e-11 1.01071e-10 1.40239e-10 0 0 
0 0 0 4.96754e-11 3.11195e-11 1.24186e-11 0 0 0 
0 0 0 2.27802e-11 0 0 0 0 0 
1.01216e-11 0 1.11695e-10 5.46646e-11 0 0 0 0 0 
0 0 0 2.5224e-08 0 0 0 2.46472e-11 0 
8.87943e-11 0 0 1.79574e-10 5.36317e-11 0 0 5.90556e-11 7.38153e-11 
0 0 3.61639e-11 0 0 3.68866e-11 0 0 0 
0 4.56974e-11 0 0 2.22236e-11 0 0 0 0 
0 0 0 0 0 0 0 2.81472e-11 0 
0 1.36707e-12 0 0 0 0 0 0 0 
0 0 0 0 0 0 7.34201e-12 0 0 
0 0 0 0 0 0 0 0 4.35765e-12 
0 0 0 0 0 0 0 0 0 
0 0 1.28031e-11 0 0 0 0 0 0 
0 0 0 0 0 0 0 0 0 
0 0 0 0 0 0 0 0 0 
0 0 0 0 0 0 0 0 0 
0 0 0 0 0 0 0 0 0 
0 0 0 0 0 0 0 0 0 
2.0771e-11 0 0 0 0 7.76155e-11 8.66734e-11 0 0 
0 2.26228e-11 0 0 0 0 0 0 0 
0 0 0 0 0 1.42193e-11 0 0 0 
0 0 0 0 0 0 4.04645e-11 0 0 
0 0 0 0 1.49163e-11 0 7.67724e-11 7.90167e-11 0 
0 0 1.05572e-10 8.25363e-11 4.54874e-12 0 0 0 0 
0 0 0 0 2.30602e-12 4.56495e-11 0 0 0 
1.32157e-10 0 0 0 1.43116e-10 0 0 0 0 
2.85969e-11 0 1.77903e-10 0 0 0 0 0 5.98846e-11 
2.67021e-11 0 7.02865e-11 2.016e-11 0 0 2.46538e-08 0 0 
3.43473e-11 0 0 0 0 1.74403e-11 0 0 0 
0 0 4.52879e-11 0 0 8.48695e-11 6.9199e-11 0 0 
1.02694e-10 8.05911e-11 2.90682e-11 0 7.80215e-11 0 0 0 1.35296e-10 
0 0 0 3.89802e-11 0 1.71474e-10 0 0 0 
1.09153e-10 0 0 0 5.3762e-11 6.08913e-11 0 7.26843e-12 0 
0 0 9.11916e-12 3.52247e-11 0 0 0 0 0 
0 0 0 0 0 2.63519e-11 0 7.98623e-11 0 
0 0 6.1813e-11 0 7.58118e-11 0 0 0 0 
0 0 0 0 0 0 0 0 0 
0 5.38171e-12 0 0 0 0 0 0 0 
0 0 1.96642e-11 8.80917e-11 1.91557e-11 0 0 0 0 
0 5.63283e-11 0 3.64099e-11 3.33349e-11 0 0 0 9.76997e-12 
0 1.9879e-11 0 0 0 0 0 0 0 
0 0 0 0 0 0 0 0 0 
0 0 0 0 0 0 0 0 0 
0 0 0 0 0 0 0 0 0 
0 0 0 0 0 0 0 0 0 
0 0 0 0 0 0 0 0 0 
0 2.56893e-12 0 5.26904e-11 0 0 0 0 0 
0 0 0 4.30866e-11 4.68922e-11 0 0 0 0 
0 2.6351e-08 0 2.45577e-10 0 0 7.67056e-12 0 0 
0 1.22851e-10 6.60693e-12 0 0 0 0 0 4.24208e-11 
2.96208e-11 0 0 0 0 3.23737e-11 6.55305e-11 0 0 
0 0 0 0 1.06393e-11 0 0 0 0 
0 0 0 0 0 0 5.02018e-11 0 0 
0 0 9.26679e-11 0 2.67398e-11 0 0 0 0 
0 0 8.86088e-14 0 0 0 5.35747e-11 9.45517e-12 0 
0 1.25161e-10 0 0 0 0 3.60976e-10 0 0 
0 0 0 0 0 0 0 1.81166e-11 0 
0 0 0 0 0 2.18574e-10 0 0 5.67853e-11 
0 0 0 4.01055e-11 5.0454e-11 2.50019e-11 0 0 0 
1.26557e-10 0 0 0 0 2.92694e-10 2.73392e-08 2.62358e-10 0 
0 0 1.20449e-10 0 0 9.09836e-11 0 0 0 
1.03788e-11 0 0 0 0 6.70754e-12 0 0 0 
0 5.32043e-11 1.20326e-10 0 0 0 0 4.47041e-11 6.39947e-11 
0 0 0 0 0 0 0 1.05126e-11 0 
0 0 0 0 6.71791e-12 0 0 0 0 
0 0 0 0 3.82442e-11 0 0 0 0 
0 0 7.19207e-11 0 0 2.36256e-10 0 0 0 
0 0 0 5.47553e-11 0 0 0 0 0 
0 0 6.41181e-12 0 0 2.18224e-12 0 0 0 
0 0 0 0 0 0 0 0 0 
0 0 0 0 0 0 0 0 0 
0 0 0 0 0 0 0 0 0 
0 0 0 0 0 0 0 0 0 
0 0 6.05821e-12 0 0 0 0 3.9723e-11 0 
0 6.67474e-11 0 0 2.47374e-08 0 3.87359e-11 0 0 
4.10728e-11 0 3.70467e-11 0 0 0 0 0 0 
3.59685e-10 0 0 0 0 2.36087e-11 1.40888e-10 0 0 
1.51066e-10 0 0 0 8.17415e-11 7.49944e-12 0 0 0 
0 0 3.79186e-11 1.3237e-11 0 0 4.73818e-11 0 0 
0 0 0 2.12412e-11 0 2.72997e-11 0 2.81453e-11 0 
0 0 0 0 0 2.40695e-10 2.03614e-10 0 0 
0 3.09918e-11 6.40191e-11 9.65848e-11 0 0 1.59889e-10 0 0 
4.05497e-11 0 0 0 0 0 1.02048e-10 9.54156e-11 0 
1.42257e-10 0 1.61597e-10 0 0 9.89799e-11 0 5.57369e-11 0 
0 0 1.4102e-11 0 0 0 0 0 0 
4.70532e-11 0 0 2.44678e-08 1.54629e-10 0 1.01304e-10 0 0 
0 0 0 0 0 1.02666e-10 0 0 1.52281e-10 
4.66745e-12 8.54092e-12 0 0 0 1.87436e-10 0 0 1.97055e-10 
0 0 0 0 0 0 1.65953e-10 0 3.95268e-11 
0 0 0 0 0 0 0 0 1.18644e-10 
0 0 0 6.55074e-11 1.5454e-10 0 0 0 0 
0 0 0 0 0 0 0 6.80747e-12 0 
0 0 0 0 0 0 0 0 4.2992e-12 
0 0 0 0 0 0 1.20582e-10 0 8.23027e-11 
0 0 0 2.49516e-08 0 0 0 0 6.8344e-11 
0 0 4.02004e-11 0 1.99744e-11 0 9.4317e-12 0 0 
0 4.50834e-12 0 0 0 0 0 0 0 
0 0 0 0 0 0 0 0 0 
0 0 0 0 0 0 0 0 0 
0 0 0 0 0 0 0 0 0 
0 0 0 0 0 0 0 0 0 
0 0 0 0 0 0 0 0 4.82739e-12 
0 1.81577e-10 8.33634e-11 1.23433e-10 2.81397e-11 0 0 0 0 
0 0 0 0 0 0 0 0 0 
2.21848e-10 0 0 7.5531e-12 0 1.06315e-10 1.44382e-10 4.61092e-11 0 
0 0 0 0 0 0 0 0 0 
2.98208e-11 0 0 0 0 3.57803e-11 0 7.19494e-11 0 
0 0 0 0 2.55614e-11 0 0 2.22067e-11 0 
6.43442e-11 0 0 0 1.50203e-10 0 4.48504e-11 0 0 
2.92541e-10 0 0 3.01787e-10 0 0 0 0 0 
0 0 0 3.51799e-11 0 6.76546e-11 0 0 2.30823e-10 
0 0 0 0 5.40681e-11 4.35905e-12 0 0 0 
0 0 0 0 0 0 0 0 2.01041e-11 
0 0 0 0 9.66038e-11 0 0 4.31742e-11 0 
6.7204e-11 0 0 2.71272e-11 0 0 0 0 9.5261e-11 
0 0 0 0 1.56663e-10 2.80072e-10 2.71301e-08 0 0 
0 1.23616e-11 0 0 0 6.85604e-11 0 0 0 
0 5.98303e-12 0 0 6.92573e-11 0 1.63814e-10 8.43666e-11 0 
0 0 0 0 0 5.52049e-11 0 0 0 
0 0 0 0 0 0 0 0 0 
0 0 0 0 0 0 1.49465e-11 0 0 
0 0 0 2.77102e-11 5.79934e-11 0 0 1.78187e-11 3.35374e-11 
0 0 0 0 0 5.35696e-12 0 5.89464e-11 4.38926e-11 
0 0 0 0 0 1.22007e-11 0 0 0 
0 1.11633e-11 0 0 0 0 0 0 0 
0 0 0 0 0 0 0 0 0 
0 0 0 0 0 0 0 0 0 
0 0 0 0 0 0 0 0 0 
0 0 0 0 0 0 0 0 0 
0 0 0 9.50294e-13 0 0 7.05895e-11 1.60173e-11 0 
1.0934e-10 2.66775e-11 3.45813e-11 0 0 0 9.40443e-12 0 1.92556e-10 
0 0 2.40208e-11 0 0 2.69519e-10 0 0 2.10538e-10 
0 0 0 0 2.68268e-08 0 0 3.90643e-11 0 
4.09244e-11 0 0 0 6.84498e-11 0 0 0 0 
0 0 0 0 0 0 0 0 0 
0 0 0 0 0 6.7984e-11 6.86107e-11 2.36203e-11 0 
0 0 0 0 0 0 0 0 0 
0 0 0 0 0 0 0 0 1.20555e-10 
0 1.74842e-11 1.79664e-10 1.07296e-10 3.80687e-12 0 1.54049e-11 0 0 
0 0 0 0 0 1.30428e-11 0 0 7.10309e-12 
0 0 0 9.51393e-11 0 0 0 0 3.29728e-11 
2.81377e-11 0 1.48075e-10 0 0 5.76245e-12 0 0 0 
0 8.37948e-11 0 0 0 0 0 1.25288e-10 0 
0 0 0 2.32871e-10 0 0 0 0 0 
0 0 0 0 0 5.04883e-11 0 0 0 
0 0 0 3.40368e-11 0 0 0 0 0 
0 0 0 4.80833e-11 5.68979e-11 9.76559e-11 8.02949e-11 0 0 
0 0 0 0 0 0 0 0 0 
0 0 0 2.57568e-11 0 0 0 0 0 
0 0 0 3.94075e-11 0 1.35468e-10 4.52576e-11 0 0 
0 1.93548e-10 0 0 0 0 0 0 0 
0 0 0 0 3.42419e-11 0 0 0 0 
0 0 0 0 0 0 0 0 0 
0 0 0 0 0 0 0 0 0 
0 0 0 0 0 0 0 0 0 
0 0 0 0 0 0 0 0 0 
0 0 0 0 0 0 0 0 0 
1.4956e-12 0 5.1392e-11 0 0 4.98682e-11 0 2.89378e-11 1.8118e-11 
0 0 0 0 0 0 0 0 0 
0 1.34012e-10 0 0 0 0 0 0 0 
0 6.64961e-11 2.53944e-10 0 0 8.80621e-11 0 0 0 
3.75958e-11 0 0 1.47424e-11 0 0 0 0 1.25223e-11 
0 0 0 0 0 0 2.79815e-11 0 6.89175e-11 
0 0 0 7.62145e-11 7.25758e-11 0 0 0 0 
1.74359e-10 0 0 3.03409e-08 0 0 0 3.48481e-08 0 
0 0 0 1.59957e-10 0 1.09133e-10 0 6.82948e-11 1.76374e-10 
2.10563e-11 2.4354e-11 7.9845e-11 0 0 0 0 5.71203e-11 0 
5.52784e-11 0 0 0 0 0 1.40235e-11 0 0 
0 0 0 0 0 0 0 0 0 
2.35065e-11 0 0 0 7.18575e-11 0 0 0 5.67525e-11 
0 0 0 1.56489e-11 0 0 0 5.53749e-11 0 
8.12793e-11 0 0 0 0 0 0 8.98552e-11 4.28631e-11 
0 0 0 0 0 0 1.56707e-10 0 0 
0 0 0 0 0 0 0 0 0 
0 0 0 0 0 7.12741e-11 6.62302e-11 0 0 
0 0 0 0 1.15817e-11 0 0 0 0 
0 3.26811e-11 0 6.426e-11 0 0 0 0 0 
0 0 9.50584e-11 0 0 0 0 0 0 
0 0 4.63244e-11 6.81263e-11 2.13499e-11 9.80835e-11 0 5.10448e-11 1.3788e-10 
0 0 0 0 0 0 0 0 0 
0 0 0 0 0 0 0 0 0 
0 0 0 0 0 0 0 0 0 
0 0 0 0 0 0 0 0 0 
0 0 0 0 0 0 0 0 0 
0 0 0 0 0 0 0 0 0 
0 4.0628e-11 0 9.19606e-11 0 6.41368e-11 0 0 0 
0 0 0 1.10229e-10 4.57857e-11 4.12815e-11 0 9.66297e-11 0 
0 0 0 0 0 0 0 0 0 
0 0 0 0 0 7.05426e-12 0 0 0 
0 0 0 0 0 0 1.01614e-10 0 0 
0 0 8.31728e-11 0 0 0 1.07686e-11 0 0 
0 0 0 0 0 8.0382e-11 0 1.77271e-10 0 
0 0 2.46803e-10 0 0 0 0 0 0 
0 0 0 0 2.63262e-08 0 0 0 0 
0 0 0 0 0 0 0 0 0 
0 0 0 0 0 0 0 0 1.20958e-11 
0 0 0 0 2.01708e-11 0 0 0 6.28017e-11 
0 1.66566e-12 0 0 1.30183e-10 0 0 0 0 
5.84113e-11 0 0 0 0 0 1.03854e-10 0 8.59034e-11 
6.11585e-11 9.233e-11 0 0 0 0 1.2164e-10 0 0 
1.01271e-10 2.49734e-08 0 0 0 1.17417e-10 4.22973e-11 0 0 
0 1.93245e-10 0 0 0 0 2.83895e-08 0 0 
6.49663e-11 0 0 0 0 0 0 0 0 
0 0 0 0 0 0 0 0 0 
0 4.5228e-11 0 0 0 1.06241e-10 6.3559e-11 0 0 
1.04776e-11 0 0 0 0 0 0 0 0 
0 0 0 0 0 0 0 0 7.87361e-11 
4.33182e-11 0 0 0 0 0 0 0 0 
0 0 0 0 0 0 0 0 0 
0 0 0 0 0 0 0 0 0 
0 0 0 0 0 0 0 0 0 
0 0 0 0 0 0 0 0 0 
0 0 0 0 0 0 2.60436e-11 0 0 
0 5.93327e-11 0 0 0 0 0 9.79339e-11 0 
3.99896e-10 0 0 0 2.79802e-11 7.79586e-11 0 0 0 
0 3.85847e-08 3.87914e-08 0 0 0 2.95243e-11 0 0 
0 0 6.83145e-11 9.66005e-12 0 0 0 0 0 
0 0 8.90112e-11 0 0 4.07618e-11 0 0 0 
0 0 2.02887e-11 0 0 0 0 0 0 
0 2.23783e-11 0 0 4.71844e-12 0 0 0 0 
0 0 0 0 3.34068e-08 0 0 2.15976e-10 0 
2.66945e-10 0 2.69688e-10 0 0 1.23884e-11 0 0 6.17891e-12 
0 0 0 0 0 5.48555e-11 0 0 0 
0 0 0 0 0 0 0 0 0 
0 7.69923e-11 0 0 0 0 0 0 0 
0 5.59495e-12 0 0 0 0 0 0 0 
0 0 0 1.17369e-10 0 0 0 1.63619e-10 0 
0 8.11122e-12 0 0 0 0 0 0 0 
0 7.6593e-11 1.13345e-11 0 1.04651e-10 4.91111e-11 0 2.15249e-10 0 
0 0 0 0 9.09923e-11 0 0 0 3.3205e-11 
0 0 0 0 0 0 0 0 0 
0 0 0 0 1.3111e-11 2.0654e-11 0 0 1.92787e-11 
0 0 0 0 2.59453e-10 0 0 1.36093e-10 0 
4.37151e-11 1.26789e-10 0 0 0 1.09991e-10 2.27457e-10 0 0 
0 0 0 0 0 0 0 0 2.01262e-11 
0 0 0 0 1.24566e-11 1.04087e-11 0 0 0 
0 0 0 0 0 0 0 0 0 
0 0 0 0 0 0 0 0 0 
0 0 0 0 0 0 0 0 0 
0 0 0 0 0 0 0 0 0 
0 0 0 0 2.13583e-11 0 0 0 0 
0 0 6.48768e-11 0 0 0 0 0 0 
0 1.25655e-11 0 0 4.36319e-11 0 8.75185e-11 0 0 
0 0 2.30165e-10 0 0 8.86374e-11 1.01642e-10 0 0 
0 0 2.98633e-11 0 0 0 0 0 0 
1.04504e-11 0 0 8.22078e-11 0 1.11841e-10 0 0 0 
0 0 0 0 0 0 0 0 0 
0 0 0 0 0 0 1.16742e-11 0 2.51364e-11 
0 4.86468e-10 0 0 0 6.17564e-11 0 2.55457e-11 0 
5.27835e-11 0 0 0 0 0 7.70698e-11 0 0 
0 9.37992e-11 0 0 5.2814e-11 0 0 4.47996e-11 0 
0 0 0 0 0 3.03419e-11 0 0 0 
0 0 0 0 1.33893e-11 0 0 0 0 
0 0 0 0 0 0 0 0 0 
0 3.55689e-11 5.339e-11 0 0 0 0 0 0 
3.76685e-11 0 0 8.92111e-11 0 0 0 0 0 
0 0 0 0 0 2.396e-11 0 5.28332e-11 0 
5.5904e-11 0 0 2.16956e-10 0 0 0 4.0858e-11 0 
5.74245e-12 0 0 0 0 0 0 0 0 
0 0 0 0 0 0 0 0 0 
1.95177e-10 1.71677e-10 2.68654e-08 0 0 1.95182e-10 0 0 0 
0 0 5.25512e-11 0 0 2.1152e-11 0 0 0 
0 0 0 1.25498e-11 0 0 0 0 0 
0 0 0 0 0 0 0 0 0 
0 0 0 0 0 0 0 0 0 
0 0 0 0 0 0 0 0 0 
0 0 0 0 0 0 0 0 0 
0 0 0 0 0 0 0 0 0 
0 0 0 0 0 0 0 5.07806e-11 0 
0 2.66989e-11 0 0 0 2.68511e-08 0 3.88155e-10 1.12079e-10 
0 0 0 0 2.77999e-10 2.94729e-10 0 0 0 
5.2365e-11 1.97098e-10 0 0 1.15169e-10 0 0 0 0 
0 0 0 0 0 0 0 0 0 
0 0 0 3.51199e-11 1.01538e-10 9.58525e-11 0 3.05334e-10 0 
0 2.10236e-11 0 0 0 0 5.78899e-11 0 0 
0 0 3.1257e-12 1.01357e-10 2.35362e-11 0 4.34592e-11 2.3963e-12 0 
0 0 4.72003e-11 0 1.05867e-10 9.67032e-12 1.95796e-11 0 0 
9.81579e-11 0 8.4905e-12 1.04929e-11 0 0 0 5.59788e-11 0 
0 0 0 0 0 0 0 0 0 
0 0 0 0 3.25867e-11 0 4.32936e-11 0 0 
0 0 0 0 0 0 0 0 0 
0 0 0 0 0 0 4.09449e-11 0 0 
0 0 1.22895e-10 0 0 0 0 4.57912e-12 0 
0 0 0 0 0 5.37048e-11 0 0 1.35477e-11 
1.3479e-10 0 0 0 0 0 0 0 1.86968e-10 
2.7531e-10 0 0 0 9.63714e-11 0 0 2.34888e-11 0 
1.47269e-11 0 0 0 0 0 0 0 0 
0 0 0 0 0 0 0 0 0 
1.08123e-10 8.59061e-11 7.36974e-11 0 0 0 0 0 0 
0 0 2.01747e-10 3.41835e-11 4.33142e-11 1.15317e-10 0 3.11672e-08 0 
0 0 0 0 0 0 0 0 0 
0 0 0 0 0 0 0 0 0 
0 0 0 0 0 0 0 0 0 
0 0 0 0 0 0 0 0 0 
0 0 0 0 0 0 0 0 0 
0 0 0 0 0 0 0 0 0 
0 0 0 0 0 0 0 2.48809e-10 4.50841e-11 
0 0 0 0 2.82298e-10 1.60385e-10 4.79591e-12 1.4152e-12 0 
0 3.54435e-11 0 1.85299e-10 0 0 0 0 0 
3.58608e-11 0 0 0 0 0 0 0 0 
0 0 0 0 0 0 0 1.33136e-10 0 
0 1.29445e-10 0 0 0 0 5.89546e-11 0 2.87007e-11 
1.6268e-11 0 0 5.37043e-11 0 3.11702e-11 0 0 0 
0 0 0 0 0 4.39211e-11 2.15107e-10 2.82742e-11 0 
0 0 0 2.49679e-11 0 0 0 2.03615e-11 0 
0 9.57286e-11 0 2.84073e-13 0 0 0 0 0 
0 5.27792e-11 1.33514e-10 0 0 0 0 0 1.66903e-11 
1.31352e-11 0 5.56743e-11 0 0 0 0 0 0 
1.16438e-10 0 0 0 0 0 0 0 9.62674e-11 
0 0 0 0 0 0 0 0 0 
0 0 0 0 0 0 3.69181e-11 7.96233e-11 0 
1.33302e-11 1.06563e-10 0 0 0 0 0 0 0 
1.04549e-10 0 0 0 0 0 0 0 0 
0 2.65275e-08 0 0 0 0 0 4.43614e-11 0 
0 0 0 0 0 0 0 0 0 
2.77632e-11 0 0 0 1.17447e-10 0 0 0 3.2403e-10 
0 0 0 1.464e-10 0 0 0 0 0 
0 0 8.25831e-11 0 0 0 0 0 0 
0 0 0 4.63901e-11 0 0 0 0 0 
0 0 0 0 0 0 0 0 0 
0 0 0 0 0 0 0 0 0 
0 0 0 0 0 0 0 0 0 
0 0 0 0 0 0 0 0 0 
0 0 0 0 0 8.02749e-12 0 0 0 
0 0 0 0 0 0 1.32605e-10 0 0 
0 7.40308e-11 8.04714e-11 0 0 0 0 0 0 
0 0 0 0 0 0 0 8.38285e-12 0 
0 0 0 7.09639e-11 0 0 4.44043e-12 2.06412e-11 0 
0 0 0 0 0 0 0 0 0 
0 0 2.67232e-10 2.72036e-08 0 0 0 0 0 
0 0 0 0 0 0 0 5.44919e-11 9.60982e-12 