# vtk DataFile Version 5.1
vtk output
ASCII
DATASET STRUCTURED_POINTS
DIMENSIONS 50 50 1
SPACING 1 1 1
ORIGIN 0 0 0
POINT_DATA 2500
FIELD FieldData 10
CellType 1 2500 char
0 0 7 0 0 0 0 0 0 
0 0 0 0 0 0 0 0 0 
0 0 0 0 0 0 0 0 0 
0 0 0 0 0 0 0 0 0 
0 0 0 0 0 0 0 0 0 
0 0 0 0 0 4 0 0 0 
0 0 0 0 0 0 0 0 0 
0 0 0 7 0 0 0 0 0 
0 0 0 0 0 0 0 0 0 
0 0 0 0 0 0 0 0 4 
4 4 0 0 0 0 0 0 0 
0 0 0 0 0 0 0 0 0 
3 0 0 0 0 3 0 0 0 
0 0 0 0 0 0 0 0 0 
0 0 0 0 0 0 0 0 0 
0 0 0 0 0 0 0 0 0 
0 0 0 0 0 0 0 0 0 
0 0 0 0 0 0 0 0 0 
0 0 0 0 7 0 0 0 0 
0 0 0 0 0 0 0 0 0 
0 0 0 0 0 0 0 0 0 
0 0 0 0 0 0 0 0 0 
0 0 0 0 0 0 0 0 0 
0 0 0 0 0 0 0 0 0 
3 0 0 0 0 0 0 0 0 
0 0 0 0 0 0 0 0 0 
0 0 0 0 0 0 0 0 0 
0 0 0 0 0 0 0 0 0 
0 0 0 0 0 0 0 0 0 
0 0 0 0 0 0 0 0 0 
0 0 0 0 0 8 0 0 4 
0 0 0 0 0 0 0 0 3 
0 2 0 0 0 0 0 0 7 
0 0 0 0 0 0 0 0 5 
0 0 0 0 0 0 0 0 0 
0 0 0 0 0 0 0 0 0 
0 0 0 0 0 0 0 0 0 
0 0 0 0 0 0 0 0 0 
0 0 0 3 0 0 0 0 0 
0 0 0 0 0 0 0 0 7 
0 0 0 0 0 0 0 0 10 
0 0 0 1 0 0 0 0 0 
0 0 0 0 0 0 0 0 0 
0 0 0 0 0 0 0 0 0 
0 0 0 3 0 0 0 0 0 
0 0 0 1 7 0 0 0 0 
7 0 0 0 0 0 0 0 1 
0 0 0 0 0 0 1 0 0 
0 0 0 1 0 0 0 0 0 
0 0 0 7 0 0 0 0 0 
0 3 0 0 0 0 0 0 0 
0 0 0 1 0 0 0 0 0 
0 0 0 0 0 0 0 0 0 
0 0 0 0 0 0 0 0 0 
0 0 10 1 0 0 0 0 0 
0 0 0 0 0 0 0 0 0 
0 0 0 0 0 0 0 1 0 
0 0 0 0 0 0 0 0 0 
0 0 0 0 0 0 0 0 1 
1 0 0 0 0 0 0 0 0 
0 0 0 2 0 0 0 0 0 
0 2 0 0 0 0 0 0 0 
0 0 0 0 0 0 0 1 0 
0 1 0 0 0 0 0 5 0 
0 0 0 0 0 0 0 0 0 
8 0 0 0 0 0 0 0 0 
0 0 0 0 0 0 0 0 0 
0 0 0 0 0 2 0 0 0 
0 0 0 0 0 0 0 0 0 
0 0 0 0 0 0 0 0 1 
0 0 0 0 0 0 0 0 0 
1 0 1 0 0 3 0 0 0 
0 0 0 3 3 0 0 0 0 
0 0 0 0 1 0 0 0 0 
1 0 0 0 0 0 0 0 0 
0 0 0 0 0 0 0 0 1 
0 0 0 0 0 0 0 0 0 
0 0 0 0 0 0 0 0 0 
0 0 0 0 0 0 0 0 0 
0 0 0 0 1 0 1 0 0 
0 0 1 0 0 0 0 0 0 
0 0 7 0 0 0 0 0 0 
0 0 0 0 0 0 0 0 0 
0 0 0 0 0 0 0 0 0 
0 0 0 0 0 1 0 0 0 
0 0 0 0 1 0 0 0 0 
0 0 0 0 0 0 0 0 0 
0 0 0 0 0 0 5 0 0 
0 0 0 0 0 0 0 0 0 
0 0 0 0 0 0 0 0 0 
1 0 0 0 0 0 0 0 0 
0 0 0 0 0 0 0 2 0 
0 0 0 0 0 2 0 1 1 
0 0 0 5 0 0 0 7 0 
0 0 0 0 0 0 0 7 0 
0 3 0 0 0 0 0 0 0 
0 3 0 0 0 1 0 0 0 
0 0 0 0 0 0 0 0 0 
0 0 0 0 0 0 0 0 0 
0 0 0 0 0 0 0 0 2 
5 0 0 0 0 0 0 3 1 
0 0 0 0 0 0 3 0 0 
0 4 0 0 0 1 0 0 0 
0 0 0 0 0 0 0 1 0 
0 0 0 0 0 0 0 0 0 
5 5 0 0 0 0 0 0 0 
4 0 0 0 0 0 0 0 0 
0 0 0 0 0 0 1 0 0 
0 0 0 1 0 0 0 0 0 
1 0 0 0 0 0 0 0 0 
0 0 0 0 0 0 0 4 0 
0 0 0 0 0 0 0 0 0 
0 0 0 0 0 0 0 0 0 
0 0 1 1 0 0 0 0 0 
0 1 3 0 0 0 0 0 5 
0 0 0 0 0 0 0 0 0 
0 0 0 0 0 0 0 0 0 
0 0 0 0 0 0 0 0 0 
0 0 0 0 1 0 0 0 0 
0 0 7 0 0 0 0 0 0 
0 0 0 0 0 0 0 0 0 
0 0 0 0 0 0 2 0 0 
0 0 0 0 0 0 0 0 0 
0 0 0 0 0 0 0 0 0 
0 0 0 0 0 0 0 0 0 
0 1 0 0 0 0 0 0 0 
0 0 1 0 0 0 0 0 0 
0 0 0 0 0 0 0 0 0 
0 0 0 0 0 0 0 0 0 
0 0 0 0 0 0 0 7 0 
0 0 0 7 0 0 0 1 0 
0 0 0 0 0 0 0 1 0 
0 0 1 0 0 0 0 0 0 
0 0 0 0 0 0 0 0 0 
0 0 7 0 0 3 0 1 0 
0 0 0 1 0 0 0 0 0 
0 1 1 0 0 0 0 0 0 
0 0 0 0 0 0 0 0 0 
0 0 0 0 0 0 0 0 0 
0 0 0 0 0 0 0 0 0 
0 0 0 0 0 0 0 0 0 
0 0 0 0 0 0 0 0 0 
0 0 0 0 0 0 0 1 0 
0 0 1 0 0 0 0 0 0 
0 0 0 0 0 0 0 0 0 
0 0 0 0 0 0 0 0 0 
0 0 0 0 1 0 0 0 0 
1 0 0 0 0 0 0 0 0 
0 0 0 0 0 0 1 1 0 
0 0 0 3 0 0 0 0 0 
0 0 0 0 0 0 0 1 7 
0 0 0 0 1 0 0 0 0 
0 2 0 0 0 0 1 0 0 
1 2 0 0 0 0 0 0 0 
1 0 0 0 0 0 0 0 0 
0 0 0 0 0 0 0 7 0 
0 0 0 0 0 0 0 0 0 
0 0 0 0 0 0 0 0 0 
0 0 0 0 0 0 0 0 0 
0 5 0 0 0 0 0 0 1 
0 0 0 0 0 0 0 0 0 
0 0 10 0 0 0 2 0 0 
0 0 0 0 0 0 0 0 7 
0 0 0 0 0 0 0 0 0 
0 0 1 0 0 0 0 1 0 
0 0 0 1 0 0 0 1 0 
0 0 0 0 0 7 0 0 0 
0 0 0 0 0 0 0 0 0 
0 0 0 0 0 0 0 0 0 
0 0 0 0 0 0 0 0 0 
0 0 0 0 0 0 0 0 0 
0 0 0 0 0 0 0 0 0 
0 0 0 0 0 0 0 0 0 
0 0 0 0 0 0 0 0 1 
0 0 0 0 0 1 0 0 0 
0 0 0 1 0 0 0 0 0 
0 0 0 0 0 0 0 0 0 
0 7 0 0 2 0 0 0 7 
0 0 0 0 0 0 0 0 0 
1 0 0 5 0 0 1 1 0 
0 0 0 1 0 0 0 0 0 
0 0 0 0 0 0 9 0 0 
0 0 0 0 0 0 0 0 0 
0 0 0 0 0 0 0 0 0 
0 0 0 0 0 1 0 0 0 
0 0 0 0 0 0 1 0 0 
0 0 0 0 0 0 1 0 0 
0 0 0 0 0 0 0 0 1 
0 0 0 0 0 0 0 0 0 
0 0 0 0 0 0 0 0 0 
0 0 1 0 0 0 0 0 0 
0 1 0 0 1 0 0 0 0 
0 0 0 0 0 0 0 0 0 
0 0 0 0 0 0 0 0 0 
0 0 0 0 3 0 0 0 0 
0 0 0 0 0 0 0 0 0 
0 0 0 0 1 0 0 0 0 
0 0 0 0 0 1 0 0 0 
0 0 0 0 0 0 0 0 1 
1 0 0 0 0 0 7 0 0 
0 0 0 0 0 0 0 0 0 
3 0 0 0 0 0 0 0 0 
0 1 0 0 0 0 0 0 0 
0 0 0 0 0 0 0 0 0 
9 0 0 0 0 0 0 7 0 
0 0 0 0 0 0 0 0 0 
0 0 0 0 0 0 0 1 0 
0 0 0 0 0 1 2 1 0 
0 1 0 0 0 0 0 0 3 
0 0 1 0 0 0 0 0 0 
0 1 0 0 0 0 0 0 0 
0 0 2 0 0 0 0 0 0 
0 0 0 0 0 0 0 0 0 
0 0 0 0 0 0 0 0 0 
0 0 0 0 0 0 1 0 0 
0 0 0 10 0 0 0 0 0 
0 0 0 0 0 0 0 0 0 
0 0 0 0 0 0 0 0 0 
1 0 0 0 0 0 0 0 5 
0 0 0 0 0 0 0 0 3 
0 0 0 0 0 0 0 0 7 
2 1 0 0 0 0 0 0 0 
0 0 0 0 0 0 0 3 0 
0 4 0 1 0 0 0 0 0 
0 0 0 0 3 0 0 0 0 
0 0 1 0 0 0 0 0 1 
0 7 0 0 0 0 0 0 0 
0 0 0 0 0 0 0 0 0 
0 0 0 0 0 0 0 0 0 
0 0 0 0 0 0 3 0 0 
0 0 0 0 0 0 0 7 0 
0 0 0 0 0 0 0 0 0 
0 0 0 0 1 4 0 0 0 
0 0 0 0 0 0 0 0 0 
0 0 0 0 0 0 0 0 0 
0 0 0 0 0 0 0 0 0 
0 0 0 0 0 0 0 0 0 
0 0 0 0 9 0 0 1 0 
0 0 0 0 0 0 0 0 0 
0 0 0 0 0 10 0 0 0 
0 0 0 0 0 0 0 0 0 
0 0 0 0 0 0 3 0 0 
0 0 0 0 3 0 0 0 0 
0 0 0 0 0 0 0 0 0 
4 0 0 0 0 0 0 0 0 
0 0 0 0 0 0 0 0 0 
5 0 0 0 0 0 0 0 0 
0 0 0 0 0 7 0 0 0 
0 0 0 0 0 0 0 0 0 
0 0 4 0 0 0 0 0 0 
0 0 0 0 0 0 3 0 0 
0 0 0 0 0 0 0 0 0 
0 0 0 0 0 0 0 0 0 
0 0 0 0 0 0 0 0 0 
0 0 0 0 0 0 0 0 0 
0 0 0 0 0 0 0 0 0 
0 0 0 0 0 0 0 0 0 
0 0 0 0 0 0 0 0 0 
0 0 0 0 0 0 0 0 0 
0 0 0 0 0 0 3 0 0 
0 0 0 0 0 0 0 0 0 
0 0 0 0 0 0 0 0 0 
0 0 0 0 0 0 0 0 0 
0 0 0 0 0 0 0 0 0 
0 0 0 0 0 0 0 0 0 
0 0 0 0 0 0 0 0 0 
0 0 0 0 0 0 0 0 0 
0 0 0 0 0 0 0 0 0 
0 0 0 0 0 5 3 0 0 
0 0 0 0 0 0 0 0 0 
0 0 0 0 0 0 0 0 0 
7 0 0 0 0 0 0 0 0 
0 0 0 0 0 0 3 0 0 
0 0 0 0 0 0 0 0 0 
0 0 3 0 0 0 0 0 0 
7 0 0 0 0 0 0 0 0 
0 0 0 0 0 0 0 0 7 
0 0 0 0 0 0 0 
CellId 1 2500 long
0 0 323 0 0 0 0 0 0 
0 0 0 0 0 0 0 0 0 
0 0 0 0 0 0 0 0 0 
0 0 0 0 0 0 0 0 0 
0 0 0 0 0 0 0 0 0 
0 0 0 0 0 217 0 0 0 
0 0 0 0 0 0 0 0 0 
0 0 0 279 0 0 0 0 0 
0 0 0 0 0 0 0 0 0 
0 0 0 0 0 0 0 0 214 
214 214 0 0 0 0 0 0 0 
0 0 0 0 0 0 0 0 0 
230 0 0 0 0 296 0 0 0 
0 0 0 0 0 0 0 0 0 
0 0 0 0 0 0 0 0 0 
0 0 0 0 0 0 0 0 0 
0 0 0 0 0 0 0 0 0 
0 0 0 0 0 0 0 0 0 
0 0 0 0 311 0 0 0 0 
0 0 0 0 0 0 0 0 0 
0 0 0 0 0 0 0 0 0 
0 0 0 0 0 0 0 0 0 
0 0 0 0 0 0 0 0 0 
0 0 0 0 0 0 0 0 0 
309 0 0 0 0 0 0 0 0 
0 0 0 0 0 0 0 0 0 
0 0 0 0 0 0 0 0 0 
0 0 0 0 0 0 0 0 0 
0 0 0 0 0 0 0 0 0 
0 0 0 0 0 0 0 0 0 
0 0 0 0 0 294 0 0 215 
0 0 0 0 0 0 0 0 266 
0 171 0 0 0 0 0 0 330 
0 0 0 0 0 0 0 0 147 
0 0 0 0 0 0 0 0 0 
0 0 0 0 0 0 0 0 0 
0 0 0 0 0 0 0 0 0 
0 0 0 0 0 0 0 0 0 
0 0 0 286 0 0 0 0 0 
0 0 0 0 0 0 0 0 295 
0 0 0 0 0 0 0 0 223 
0 0 0 77 0 0 0 0 0 
0 0 0 0 0 0 0 0 0 
0 0 0 0 0 0 0 0 0 
0 0 0 301 0 0 0 0 0 
0 0 0 63 295 0 0 0 0 
303 0 0 0 0 0 0 0 78 
0 0 0 0 0 0 43 0 0 
0 0 0 11 0 0 0 0 0 
0 0 0 327 0 0 0 0 0 
0 328 0 0 0 0 0 0 0 
0 0 0 62 0 0 0 0 0 
0 0 0 0 0 0 0 0 0 
0 0 0 0 0 0 0 0 0 
0 0 220 71 0 0 0 0 0 
0 0 0 0 0 0 0 0 0 
0 0 0 0 0 0 0 38 0 
0 0 0 0 0 0 0 0 0 
0 0 0 0 0 0 0 0 67 
100 0 0 0 0 0 0 0 0 
0 0 0 121 0 0 0 0 0 
0 138 0 0 0 0 0 0 0 
0 0 0 0 0 0 0 96 0 
0 25 0 0 0 0 0 166 0 
0 0 0 0 0 0 0 0 0 
235 0 0 0 0 0 0 0 0 
0 0 0 0 0 0 0 0 0 
0 0 0 0 0 118 0 0 0 
0 0 0 0 0 0 0 0 0 
0 0 0 0 0 0 0 0 68 
0 0 0 0 0 0 0 0 0 
31 0 7 0 0 282 0 0 0 
0 0 0 320 233 0 0 0 0 
0 0 0 0 69 0 0 0 0 
22 0 0 0 0 0 0 0 0 
0 0 0 0 0 0 0 0 33 
0 0 0 0 0 0 0 0 0 
0 0 0 0 0 0 0 0 0 
0 0 0 0 0 0 0 0 0 
0 0 0 0 8 0 61 0 0 
0 0 60 0 0 0 0 0 0 
0 0 238 0 0 0 0 0 0 
0 0 0 0 0 0 0 0 0 
0 0 0 0 0 0 0 0 0 
0 0 0 0 0 23 0 0 0 
0 0 0 0 85 0 0 0 0 
0 0 0 0 0 0 0 0 0 
0 0 0 0 0 0 175 0 0 
0 0 0 0 0 0 0 0 0 
0 0 0 0 0 0 0 0 0 
5 0 0 0 0 0 0 0 0 
0 0 0 0 0 0 0 199 0 
0 0 0 0 0 186 0 86 53 
0 0 0 169 0 0 0 321 0 
0 0 0 0 0 0 0 269 0 
0 271 0 0 0 0 0 0 0 
0 306 0 0 0 72 0 0 0 
0 0 0 0 0 0 0 0 0 
0 0 0 0 0 0 0 0 0 
0 0 0 0 0 0 0 0 143 
208 0 0 0 0 0 0 263 59 
0 0 0 0 0 0 306 0 0 
0 218 0 0 0 97 0 0 0 
0 0 0 0 0 0 0 51 0 
0 0 0 0 0 0 0 0 0 
198 209 0 0 0 0 0 0 0 
211 0 0 0 0 0 0 0 0 
0 0 0 0 0 0 54 0 0 
0 0 0 70 0 0 0 0 0 
3 0 0 0 0 0 0 0 0 
0 0 0 0 0 0 0 212 0 
0 0 0 0 0 0 0 0 0 
0 0 0 0 0 0 0 0 0 
0 0 42 57 0 0 0 0 0 
0 76 310 0 0 0 0 0 200 
0 0 0 0 0 0 0 0 0 
0 0 0 0 0 0 0 0 0 
0 0 0 0 0 0 0 0 0 
0 0 0 0 66 0 0 0 0 
0 0 299 0 0 0 0 0 0 
0 0 0 0 0 0 0 0 0 
0 0 0 0 0 0 205 0 0 
0 0 0 0 0 0 0 0 0 
0 0 0 0 0 0 0 0 0 
0 0 0 0 0 0 0 0 0 
0 84 0 0 0 0 0 0 0 
0 0 40 0 0 0 0 0 0 
0 0 0 0 0 0 0 0 0 
0 0 0 0 0 0 0 0 0 
0 0 0 0 0 0 0 314 0 
0 0 0 307 0 0 0 34 0 
0 0 0 0 0 0 0 88 0 
0 0 82 0 0 0 0 0 0 
0 0 0 0 0 0 0 0 0 
0 0 246 0 0 298 0 44 0 
0 0 0 29 0 0 0 0 0 
0 2 91 0 0 0 0 0 0 
0 0 0 0 0 0 0 0 0 
0 0 0 0 0 0 0 0 0 
0 0 0 0 0 0 0 0 0 
0 0 0 0 0 0 0 0 0 
0 0 0 0 0 0 0 0 0 
0 0 0 0 0 0 0 27 0 
0 0 41 0 0 0 0 0 0 
0 0 0 0 0 0 0 0 0 
0 0 0 0 0 0 0 0 0 
0 0 0 0 98 0 0 0 0 
10 0 0 0 0 0 0 0 0 
0 0 0 0 0 0 4 58 0 
0 0 0 316 0 0 0 0 0 
0 0 0 0 0 0 0 73 288 
0 0 0 0 75 0 0 0 0 
0 195 0 0 0 0 13 0 0 
55 196 0 0 0 0 0 0 0 
32 0 0 0 0 0 0 0 0 
0 0 0 0 0 0 0 247 0 
0 0 0 0 0 0 0 0 0 
0 0 0 0 0 0 0 0 0 
0 0 0 0 0 0 0 0 0 
0 136 0 0 0 0 0 0 49 
0 0 0 0 0 0 0 0 0 
0 0 222 0 0 0 197 0 0 
0 0 0 0 0 0 0 0 245 
0 0 0 0 0 0 0 0 0 
0 0 47 0 0 0 0 89 0 
0 0 0 37 0 0 0 30 0 
0 0 0 0 0 315 0 0 0 
0 0 0 0 0 0 0 0 0 
0 0 0 0 0 0 0 0 0 
0 0 0 0 0 0 0 0 0 
0 0 0 0 0 0 0 0 0 
0 0 0 0 0 0 0 0 0 
0 0 0 0 0 0 0 0 0 
0 0 0 0 0 0 0 0 95 
0 0 0 0 0 90 0 0 0 
0 0 0 48 0 0 0 0 0 
0 0 0 0 0 0 0 0 0 
0 251 0 0 187 0 0 0 257 
0 0 0 0 0 0 0 0 0 
83 0 0 202 0 0 52 87 0 
0 0 0 14 0 0 0 0 0 
0 0 0 0 0 0 322 0 0 
0 0 0 0 0 0 0 0 0 
0 0 0 0 0 0 0 0 0 
0 0 0 0 0 9 0 0 0 
0 0 0 0 0 0 21 0 0 
0 0 0 0 0 0 99 0 0 
0 0 0 0 0 0 0 0 64 
0 0 0 0 0 0 0 0 0 
0 0 0 0 0 0 0 0 0 
0 0 26 0 0 0 0 0 0 
0 80 0 0 45 0 0 0 0 
0 0 0 0 0 0 0 0 0 
0 0 0 0 0 0 0 0 0 
0 0 0 0 283 0 0 0 0 
0 0 0 0 0 0 0 0 0 
0 0 0 0 1 0 0 0 0 
0 0 0 0 0 94 0 0 0 
0 0 0 0 0 0 0 0 93 
35 0 0 0 0 0 243 0 0 
0 0 0 0 0 0 0 0 0 
302 0 0 0 0 0 0 0 0 
0 15 0 0 0 0 0 0 0 
0 0 0 0 0 0 0 0 0 
229 0 0 0 0 0 0 270 0 
0 0 0 0 0 0 0 0 0 
0 0 0 0 0 0 0 39 0 
0 0 0 0 0 19 139 46 0 
0 36 0 0 0 0 0 0 280 
0 0 50 0 0 0 0 0 0 
0 17 0 0 0 0 0 0 0 
0 0 125 0 0 0 0 0 0 
0 0 0 0 0 0 0 0 0 
0 0 0 0 0 0 0 0 0 
0 0 0 0 0 0 18 0 0 
0 0 0 221 0 0 0 0 0 
0 0 0 0 0 0 0 0 0 
0 0 0 0 0 0 0 0 0 
20 0 0 0 0 0 0 0 179 
0 0 0 0 0 0 0 0 332 
0 0 0 0 0 0 0 0 290 
151 24 0 0 0 0 0 0 0 
0 0 0 0 0 0 0 292 0 
0 216 0 74 0 0 0 0 0 
0 0 0 0 261 0 0 0 0 
0 0 6 0 0 0 0 0 56 
0 281 0 0 0 0 0 0 0 
0 0 0 0 0 0 0 0 0 
0 0 0 0 0 0 0 0 0 
0 0 0 0 0 0 293 0 0 
0 0 0 0 0 0 0 264 0 
0 0 0 0 0 0 0 0 0 
0 0 0 0 16 213 0 0 0 
0 0 0 0 0 0 0 0 0 
0 0 0 0 0 0 0 0 0 
0 0 0 0 0 0 0 0 0 
0 0 0 0 0 0 0 0 0 
0 0 0 0 260 0 0 81 0 
0 0 0 0 0 0 0 0 0 
0 0 0 0 0 326 0 0 0 
0 0 0 0 0 0 0 0 0 
0 0 0 0 0 0 336 0 0 
0 0 0 0 275 0 0 0 0 
0 0 0 0 0 0 0 0 0 
219 0 0 0 0 0 0 0 0 
0 0 0 0 0 0 0 0 0 
140 0 0 0 0 0 0 0 0 
0 0 0 0 0 267 0 0 0 
0 0 0 0 0 0 0 0 0 
0 0 325 0 0 0 0 0 0 
0 0 0 0 0 0 318 0 0 
0 0 0 0 0 0 0 0 0 
0 0 0 0 0 0 0 0 0 
0 0 0 0 0 0 0 0 0 
0 0 0 0 0 0 0 0 0 
0 0 0 0 0 0 0 0 0 
0 0 0 0 0 0 0 0 0 
0 0 0 0 0 0 0 0 0 
0 0 0 0 0 0 0 0 0 
0 0 0 0 0 0 331 0 0 
0 0 0 0 0 0 0 0 0 
0 0 0 0 0 0 0 0 0 
0 0 0 0 0 0 0 0 0 
0 0 0 0 0 0 0 0 0 
0 0 0 0 0 0 0 0 0 
0 0 0 0 0 0 0 0 0 
0 0 0 0 0 0 0 0 0 
0 0 0 0 0 0 0 0 0 
0 0 0 0 0 154 287 0 0 
0 0 0 0 0 0 0 0 0 
0 0 0 0 0 0 0 0 0 
274 0 0 0 0 0 0 0 0 
0 0 0 0 0 0 231 0 0 
0 0 0 0 0 0 0 0 0 
0 0 287 0 0 0 0 0 0 
244 0 0 0 0 0 0 0 0 
0 0 0 0 0 0 0 0 268 
0 0 0 0 0 0 0 
ClusterId 1 2500 long
0 0 323 0 0 0 0 0 0 
0 0 0 0 0 0 0 0 0 
0 0 0 0 0 0 0 0 0 
0 0 0 0 0 0 0 0 0 
0 0 0 0 0 0 0 0 0 
0 0 0 0 0 217 0 0 0 
0 0 0 0 0 0 0 0 0 
0 0 0 279 0 0 0 0 0 
0 0 0 0 0 0 0 0 0 
0 0 0 0 0 0 0 0 214 
214 214 0 0 0 0 0 0 0 
0 0 0 0 0 0 0 0 0 
230 0 0 0 0 296 0 0 0 
0 0 0 0 0 0 0 0 0 
0 0 0 0 0 0 0 0 0 
0 0 0 0 0 0 0 0 0 
0 0 0 0 0 0 0 0 0 
0 0 0 0 0 0 0 0 0 
0 0 0 0 311 0 0 0 0 
0 0 0 0 0 0 0 0 0 
0 0 0 0 0 0 0 0 0 
0 0 0 0 0 0 0 0 0 
0 0 0 0 0 0 0 0 0 
0 0 0 0 0 0 0 0 0 
309 0 0 0 0 0 0 0 0 
0 0 0 0 0 0 0 0 0 
0 0 0 0 0 0 0 0 0 
0 0 0 0 0 0 0 0 0 
0 0 0 0 0 0 0 0 0 
0 0 0 0 0 0 0 0 0 
0 0 0 0 0 294 0 0 215 
0 0 0 0 0 0 0 0 266 
0 171 0 0 0 0 0 0 330 
0 0 0 0 0 0 0 0 147 
0 0 0 0 0 0 0 0 0 
0 0 0 0 0 0 0 0 0 
0 0 0 0 0 0 0 0 0 
0 0 0 0 0 0 0 0 0 
0 0 0 286 0 0 0 0 0 
0 0 0 0 0 0 0 0 295 
0 0 0 0 0 0 0 0 223 
0 0 0 77 0 0 0 0 0 
0 0 0 0 0 0 0 0 0 
0 0 0 0 0 0 0 0 0 
0 0 0 301 0 0 0 0 0 
0 0 0 63 295 0 0 0 0 
303 0 0 0 0 0 0 0 78 
0 0 0 0 0 0 43 0 0 
0 0 0 11 0 0 0 0 0 
0 0 0 327 0 0 0 0 0 
0 328 0 0 0 0 0 0 0 
0 0 0 62 0 0 0 0 0 
0 0 0 0 0 0 0 0 0 
0 0 0 0 0 0 0 0 0 
0 0 220 71 0 0 0 0 0 
0 0 0 0 0 0 0 0 0 
0 0 0 0 0 0 0 38 0 
0 0 0 0 0 0 0 0 0 
0 0 0 0 0 0 0 0 67 
100 0 0 0 0 0 0 0 0 
0 0 0 121 0 0 0 0 0 
0 138 0 0 0 0 0 0 0 
0 0 0 0 0 0 0 96 0 
0 25 0 0 0 0 0 166 0 
0 0 0 0 0 0 0 0 0 
235 0 0 0 0 0 0 0 0 
0 0 0 0 0 0 0 0 0 
0 0 0 0 0 118 0 0 0 
0 0 0 0 0 0 0 0 0 
0 0 0 0 0 0 0 0 68 
0 0 0 0 0 0 0 0 0 
31 0 7 0 0 282 0 0 0 
0 0 0 320 233 0 0 0 0 
0 0 0 0 69 0 0 0 0 
22 0 0 0 0 0 0 0 0 
0 0 0 0 0 0 0 0 33 
0 0 0 0 0 0 0 0 0 
0 0 0 0 0 0 0 0 0 
0 0 0 0 0 0 0 0 0 
0 0 0 0 8 0 61 0 0 
0 0 60 0 0 0 0 0 0 
0 0 238 0 0 0 0 0 0 
0 0 0 0 0 0 0 0 0 
0 0 0 0 0 0 0 0 0 
0 0 0 0 0 23 0 0 0 
0 0 0 0 85 0 0 0 0 
0 0 0 0 0 0 0 0 0 
0 0 0 0 0 0 175 0 0 
0 0 0 0 0 0 0 0 0 
0 0 0 0 0 0 0 0 0 
5 0 0 0 0 0 0 0 0 
0 0 0 0 0 0 0 199 0 
0 0 0 0 0 186 0 86 53 
0 0 0 169 0 0 0 321 0 
0 0 0 0 0 0 0 269 0 
0 271 0 0 0 0 0 0 0 
0 306 0 0 0 72 0 0 0 
0 0 0 0 0 0 0 0 0 
0 0 0 0 0 0 0 0 0 
0 0 0 0 0 0 0 0 143 
208 0 0 0 0 0 0 263 59 
0 0 0 0 0 0 306 0 0 
0 218 0 0 0 97 0 0 0 
0 0 0 0 0 0 0 51 0 
0 0 0 0 0 0 0 0 0 
198 209 0 0 0 0 0 0 0 
211 0 0 0 0 0 0 0 0 
0 0 0 0 0 0 54 0 0 
0 0 0 70 0 0 0 0 0 
3 0 0 0 0 0 0 0 0 
0 0 0 0 0 0 0 212 0 
0 0 0 0 0 0 0 0 0 
0 0 0 0 0 0 0 0 0 
0 0 42 57 0 0 0 0 0 
0 76 310 0 0 0 0 0 200 
0 0 0 0 0 0 0 0 0 
0 0 0 0 0 0 0 0 0 
0 0 0 0 0 0 0 0 0 
0 0 0 0 66 0 0 0 0 
0 0 299 0 0 0 0 0 0 
0 0 0 0 0 0 0 0 0 
0 0 0 0 0 0 205 0 0 
0 0 0 0 0 0 0 0 0 
0 0 0 0 0 0 0 0 0 
0 0 0 0 0 0 0 0 0 
0 84 0 0 0 0 0 0 0 
0 0 40 0 0 0 0 0 0 
0 0 0 0 0 0 0 0 0 
0 0 0 0 0 0 0 0 0 
0 0 0 0 0 0 0 314 0 
0 0 0 307 0 0 0 34 0 
0 0 0 0 0 0 0 88 0 
0 0 82 0 0 0 0 0 0 
0 0 0 0 0 0 0 0 0 
0 0 246 0 0 298 0 44 0 
0 0 0 29 0 0 0 0 0 
0 2 91 0 0 0 0 0 0 
0 0 0 0 0 0 0 0 0 
0 0 0 0 0 0 0 0 0 
0 0 0 0 0 0 0 0 0 
0 0 0 0 0 0 0 0 0 
0 0 0 0 0 0 0 0 0 
0 0 0 0 0 0 0 27 0 
0 0 41 0 0 0 0 0 0 
0 0 0 0 0 0 0 0 0 
0 0 0 0 0 0 0 0 0 
0 0 0 0 98 0 0 0 0 
10 0 0 0 0 0 0 0 0 
0 0 0 0 0 0 4 58 0 
0 0 0 316 0 0 0 0 0 
0 0 0 0 0 0 0 73 288 
0 0 0 0 75 0 0 0 0 
0 195 0 0 0 0 13 0 0 
55 196 0 0 0 0 0 0 0 
32 0 0 0 0 0 0 0 0 
0 0 0 0 0 0 0 247 0 
0 0 0 0 0 0 0 0 0 
0 0 0 0 0 0 0 0 0 
0 0 0 0 0 0 0 0 0 
0 136 0 0 0 0 0 0 49 
0 0 0 0 0 0 0 0 0 
0 0 222 0 0 0 197 0 0 
0 0 0 0 0 0 0 0 245 
0 0 0 0 0 0 0 0 0 
0 0 47 0 0 0 0 89 0 
0 0 0 37 0 0 0 30 0 
0 0 0 0 0 315 0 0 0 
0 0 0 0 0 0 0 0 0 
0 0 0 0 0 0 0 0 0 
0 0 0 0 0 0 0 0 0 
0 0 0 0 0 0 0 0 0 
0 0 0 0 0 0 0 0 0 
0 0 0 0 0 0 0 0 0 
0 0 0 0 0 0 0 0 95 
0 0 0 0 0 90 0 0 0 
0 0 0 48 0 0 0 0 0 
0 0 0 0 0 0 0 0 0 
0 251 0 0 187 0 0 0 257 
0 0 0 0 0 0 0 0 0 
83 0 0 202 0 0 52 87 0 
0 0 0 14 0 0 0 0 0 
0 0 0 0 0 0 322 0 0 
0 0 0 0 0 0 0 0 0 
0 0 0 0 0 0 0 0 0 
0 0 0 0 0 9 0 0 0 
0 0 0 0 0 0 21 0 0 
0 0 0 0 0 0 99 0 0 
0 0 0 0 0 0 0 0 64 
0 0 0 0 0 0 0 0 0 
0 0 0 0 0 0 0 0 0 
0 0 26 0 0 0 0 0 0 
0 80 0 0 45 0 0 0 0 
0 0 0 0 0 0 0 0 0 
0 0 0 0 0 0 0 0 0 
0 0 0 0 283 0 0 0 0 
0 0 0 0 0 0 0 0 0 
0 0 0 0 1 0 0 0 0 
0 0 0 0 0 94 0 0 0 
0 0 0 0 0 0 0 0 93 
35 0 0 0 0 0 243 0 0 
0 0 0 0 0 0 0 0 0 
302 0 0 0 0 0 0 0 0 
0 15 0 0 0 0 0 0 0 
0 0 0 0 0 0 0 0 0 
229 0 0 0 0 0 0 270 0 
0 0 0 0 0 0 0 0 0 
0 0 0 0 0 0 0 39 0 
0 0 0 0 0 19 139 46 0 
0 36 0 0 0 0 0 0 280 
0 0 50 0 0 0 0 0 0 
0 17 0 0 0 0 0 0 0 
0 0 125 0 0 0 0 0 0 
0 0 0 0 0 0 0 0 0 
0 0 0 0 0 0 0 0 0 
0 0 0 0 0 0 18 0 0 
0 0 0 221 0 0 0 0 0 
0 0 0 0 0 0 0 0 0 
0 0 0 0 0 0 0 0 0 
20 0 0 0 0 0 0 0 179 
0 0 0 0 0 0 0 0 332 
0 0 0 0 0 0 0 0 290 
151 24 0 0 0 0 0 0 0 
0 0 0 0 0 0 0 292 0 
0 216 0 74 0 0 0 0 0 
0 0 0 0 261 0 0 0 0 
0 0 6 0 0 0 0 0 56 
0 281 0 0 0 0 0 0 0 
0 0 0 0 0 0 0 0 0 
0 0 0 0 0 0 0 0 0 
0 0 0 0 0 0 293 0 0 
0 0 0 0 0 0 0 264 0 
0 0 0 0 0 0 0 0 0 
0 0 0 0 16 213 0 0 0 
0 0 0 0 0 0 0 0 0 
0 0 0 0 0 0 0 0 0 
0 0 0 0 0 0 0 0 0 
0 0 0 0 0 0 0 0 0 
0 0 0 0 260 0 0 81 0 
0 0 0 0 0 0 0 0 0 
0 0 0 0 0 326 0 0 0 
0 0 0 0 0 0 0 0 0 
0 0 0 0 0 0 336 0 0 
0 0 0 0 275 0 0 0 0 
0 0 0 0 0 0 0 0 0 
219 0 0 0 0 0 0 0 0 
0 0 0 0 0 0 0 0 0 
140 0 0 0 0 0 0 0 0 
0 0 0 0 0 267 0 0 0 
0 0 0 0 0 0 0 0 0 
0 0 325 0 0 0 0 0 0 
0 0 0 0 0 0 318 0 0 
0 0 0 0 0 0 0 0 0 
0 0 0 0 0 0 0 0 0 
0 0 0 0 0 0 0 0 0 
0 0 0 0 0 0 0 0 0 
0 0 0 0 0 0 0 0 0 
0 0 0 0 0 0 0 0 0 
0 0 0 0 0 0 0 0 0 
0 0 0 0 0 0 0 0 0 
0 0 0 0 0 0 331 0 0 
0 0 0 0 0 0 0 0 0 
0 0 0 0 0 0 0 0 0 
0 0 0 0 0 0 0 0 0 
0 0 0 0 0 0 0 0 0 
0 0 0 0 0 0 0 0 0 
0 0 0 0 0 0 0 0 0 
0 0 0 0 0 0 0 0 0 
0 0 0 0 0 0 0 0 0 
0 0 0 0 0 154 287 0 0 
0 0 0 0 0 0 0 0 0 
0 0 0 0 0 0 0 0 0 
274 0 0 0 0 0 0 0 0 
0 0 0 0 0 0 231 0 0 
0 0 0 0 0 0 0 0 0 
0 0 287 0 0 0 0 0 0 
244 0 0 0 0 0 0 0 0 
0 0 0 0 0 0 0 0 268 
0 0 0 0 0 0 0 
cytokine 1 2500 double
0 0 0 0 0 0 0 0 0 
0 0 0 0 0 0 0 0 0 
0 0 0 0 0 0 0 0 0 
0 0 0 0 0 0 0 0 0 
0 0 0 0 0 0 0 0 0 
0 0 0 0 0 0 0 0 0 
0 0 0 0 0 0 0 0 0 
0 0 0 0 0 0 0 0 0 
0 0 0 0 0 0 0 0 0 
0 0 0 0 0 0 0 0 0 
0 0 0 0 0 0 0 0 0 
0 0 0 0 0 0 0 0 0 
0 0 0 0 0 0 0 0 0 
0 0 0 0 0 0 0 0 0 
0 0 0 0 0 0 0 0 0 
0 0 0 0 0 0 0 0 0 
0 0 0 0 0 0 0 0 0 
0 0 0 0 0 0 0 0 0 
0 0 0 0 0 0 0 0 0 
0 0 0 0 0 0 0 0 0 
0 0 0 0 0 0 0 0 0 
0 0 0 0 0 0 0 0 0 
0 0 0 0 0 0 0 0 0 
0 0 0 0 0 0 0 0 0 
0 0 0 0 0 0 0 0 0 
0 0 0 0 0 0 0 0 0 
0 0 0 0 0 0 0 0 0 
0 0 0 0 0 0 0 0 0 
0 0 0 0 0 0 0 0 0 
0 0 0 0 0 0 0 0 0 
0 0 0 0 0 0 0 0 0 
0 0 0 0 0 0 0 0 0 
0 0 0 0 0 0 0 0 0 
0 0 0 0 0 0 0 0 0 
0 0 0 0 0 0 0 0 0 
0 0 0 0 0 0 0 0 0 
0 0 0 0 0 0 0 0 0 
0 0 0 0 0 0 0 0 0 
0 0 0 0 0 0 0 0 0 
0 0 0 0 0 0 0 0 0 
0 0 0 0 0 0 0 0 0 
0 0 0 0 0 0 0 0 0 
0 0 0 0 0 0 0 0 0 
0 0 0 0 0 0 0 0 0 
0 0 0 0 0 0 0 0 0 
0 0 0 0 0 0 0 0 0 
0 0 0 0 0 0 0 0 0 
0 0 0 0 0 0 0 0 0 
0 0 0 0 0 0 0 0 0 
0 0 0 0 0 0 0 0 0 
0 0 0 0 0 0 0 0 0 
0 0 0 0 0 0 0 0 0 
0 0 0 0 0 0 0 0 0 
0 0 0 0 0 0 0 0 0 
0 0 0 0 0 0 0 0 0 
0 0 0 0 0 0 0 0 0 
0 0 0 0 0 0 0 0 0 
0 0 0 0 0 0 0 0 0 
0 0 0 0 0 0 0 0 0 
0 0 0 0 0 0 0 0 0 
0 0 0 0 0 0 0 0 0 
0 0 0 0 0 0 0 0 0 
0 0 0 0 0 0 0 0 0 
0 0 0 0 0 0 0 0 0 
0 0 0 0 0 0 0 0 0 
0 0 0 0 0 0 0 0 0 
0 0 0 0 0 0 0 0 0 
0 0 0 0 0 0 0 0 0 
0 0 0 0 0 0 0 0 0 
0 0 0 0 0 0 0 0 0 
0 0 0 0 0 0 0 0 0 
0 0 0 0 0 0 0 0 0 
0 0 0 0 0 0 0 0 0 
0 0 0 0 0 0 0 0 0 
0 0 0 0 0 0 0 0 0 
0 0 0 0 0 0 0 0 0 
0 0 0 0 0 0 0 0 0 
0 0 0 0 0 0 0 0 0 
0 0 0 0 0 0 0 0 0 
0 0 0 0 0 0 0 0 0 
0 0 0 0 0 0 0 0 0 
0 0 0 0 0 0 0 0 0 
0 0 0 0 0 0 0 0 0 
0 0 0 0 0 0 0 0 0 
0 0 0 0 0 0 0 0 0 
0 0 0 0 0 0 0 0 0 
0 0 0 0 0 0 0 0 0 
0 0 0 0 0 0 0 0 0 
0 0 0 0 0 0 0 0 0 
0 0 0 0 0 0 0 0 0 
0 0 0 0 0 0 0 0 0 
0 0 0 0 0 0 0 0 0 
0 0 0 0 0 0 0 0 0 
0 0 0 0 0 0 0 0 0 
0 0 0 0 0 0 0 0 0 
0 0 0 0 0 0 0 0 0 
0 0 0 0 0 0 0 0 0 
0 0 0 0 0 0 0 0 0 
0 0 0 0 0 0 0 0 0 
0 0 0 0 0 0 0 0 0 
0 0 0 0 0 0 0 0 0 
0 0 0 0 0 0 0 0 0 
0 0 0 0 0 0 0 0 0 
0 0 0 0 0 0 0 0 0 
0 0 0 0 0 0 0 0 0 
0 0 0 0 0 0 0 0 0 
0 0 0 0 0 0 0 0 0 
0 0 0 0 0 0 0 0 0 
0 0 0 0 0 0 0 0 0 
0 0 0 0 0 0 0 0 0 
0 0 0 0 0 0 0 0 0 
0 0 0 0 0 0 0 0 0 
0 0 0 0 0 0 0 0 0 
0 0 0 0 0 0 0 0 0 
0 0 0 0 0 0 0 0 0 
0 0 0 0 0 0 0 0 0 
0 0 0 0 0 0 0 0 0 
0 0 0 0 0 0 0 0 0 
0 0 0 0 0 0 0 0 0 
0 0 0 0 0 0 0 0 0 
0 0 0 0 0 0 0 0 0 
0 0 0 0 0 0 0 0 0 
0 0 0 0 0 0 0 0 0 
0 0 0 0 0 0 0 0 0 
0 0 0 0 0 0 0 0 0 
0 0 0 0 0 0 0 0 0 
0 0 0 0 0 0 0 0 0 
0 0 0 0 0 0 0 0 0 
0 0 0 0 0 0 0 0 0 
0 0 0 0 0 0 0 0 0 
0 0 0 0 0 0 0 0 0 
0 0 0 0 0 0 0 0 0 
0 0 0 0 0 0 0 0 0 
0 0 0 0 0 0 0 0 0 
0 0 0 0 0 0 0 0 0 
0 0 0 0 0 0 0 0 0 
0 0 0 0 0 0 0 0 0 
0 0 0 0 0 0 0 0 0 
0 0 0 0 0 0 0 0 0 
0 0 0 0 0 0 0 0 0 
0 0 0 0 0 0 0 0 0 
0 0 0 0 0 0 0 0 0 
0 0 0 0 0 0 0 0 0 
0 0 0 0 0 0 0 0 0 
0 0 0 0 0 0 0 0 0 
0 0 0 0 0 0 0 0 0 
0 0 0 0 0 0 0 0 0 
0 0 0 0 0 0 0 0 0 
0 0 0 0 0 0 0 0 0 
0 0 0 0 0 0 0 0 0 
0 0 0 0 0 0 0 0 0 
0 0 0 0 0 0 0 0 0 
0 0 0 0 0 0 0 0 0 
0 0 0 0 0 0 0 0 0 
0 0 0 0 0 0 0 0 0 
0 0 0 0 0 0 0 0 0 
0 0 0 0 0 0 0 0 0 
0 0 0 0 0 0 0 0 0 
0 0 0 0 0 0 0 0 0 
0 0 0 0 0 0 0 0 0 
0 0 0 0 0 0 0 0 0 
0 0 0 0 0 0 0 0 0 
0 0 0 0 0 0 0 0 0 
0 0 0 0 0 0 0 0 0 
0 0 0 0 0 0 0 0 0 
0 0 0 0 0 0 0 0 0 
0 0 0 0 0 0 0 0 0 
0 0 0 0 0 0 0 0 0 
0 0 0 0 0 0 0 0 0 
0 0 0 0 0 0 0 0 0 
0 0 0 0 0 0 0 0 0 
0 0 0 0 0 0 0 0 0 
0 0 0 0 0 0 0 0 0 
0 0 0 0 0 0 0 0 0 
0 0 0 0 0 0 0 0 0 
0 0 0 0 0 0 0 0 0 
0 0 0 0 0 0 0 0 0 
0 0 0 0 0 0 0 0 0 
0 0 0 0 0 0 0 0 0 
0 0 0 0 0 0 0 0 0 
0 0 0 0 0 0 0 0 0 
0 0 0 0 0 0 0 0 0 
0 0 0 0 0 0 0 0 0 
0 0 0 0 0 0 0 0 0 
0 0 0 0 0 0 0 0 0 
0 0 0 0 0 0 0 0 0 
0 0 0 0 0 0 0 0 0 
0 0 0 0 0 0 0 0 0 
0 0 0 0 0 0 0 0 0 
0 0 0 0 0 0 0 0 0 
0 0 0 0 0 0 0 0 0 
0 0 0 0 0 0 0 0 0 
0 0 0 0 0 0 0 0 0 
0 0 0 0 0 0 0 0 0 
0 0 0 0 0 0 0 0 0 
0 0 0 0 0 0 0 0 0 
0 0 0 0 0 0 0 0 0 
0 0 0 0 0 0 0 0 0 
0 0 0 0 0 0 0 0 0 
0 0 0 0 0 0 0 0 0 
0 0 0 0 0 0 0 0 0 
0 0 0 0 0 0 0 0 0 
0 0 0 0 0 0 0 0 0 
0 0 0 0 0 0 0 0 0 
0 0 0 0 0 0 0 0 0 
0 0 0 0 0 0 0 0 0 
0 0 0 0 0 0 0 0 0 
0 0 0 0 0 0 0 0 0 
0 0 0 0 0 0 0 0 0 
0 0 0 0 0 0 0 0 0 
0 0 0 0 0 0 0 0 0 
0 0 0 0 0 0 0 0 0 
0 0 0 0 0 0 0 0 0 
0 0 0 0 0 0 0 0 0 
0 0 0 0 0 0 0 0 0 
0 0 0 0 0 0 0 0 0 
0 0 0 0 0 0 0 0 0 
0 0 0 0 0 0 0 0 0 
0 0 0 0 0 0 0 0 0 
0 0 0 0 0 0 0 0 0 
0 0 0 0 0 0 0 0 0 
0 0 0 0 0 0 0 0 0 
0 0 0 0 0 0 0 0 0 
0 0 0 0 0 0 0 0 0 
0 0 0 0 0 0 0 0 0 
0 0 0 0 0 0 0 0 0 
0 0 0 0 0 0 0 0 0 
0 0 0 0 0 0 0 0 0 
0 0 0 0 0 0 0 0 0 
0 0 0 0 0 0 0 0 0 
0 0 0 0 0 0 0 0 0 
0 0 0 0 0 0 0 0 0 
0 0 0 0 0 0 0 0 0 
0 0 0 0 0 0 0 0 0 
0 0 0 0 0 0 0 0 0 
0 0 0 0 0 0 0 0 0 
0 0 0 0 0 0 0 0 0 
0 0 0 0 0 0 0 0 0 
0 0 0 0 0 0 0 0 0 
0 0 0 0 0 0 0 0 0 
0 0 0 0 0 0 0 0 0 
0 0 0 0 0 0 0 0 0 
0 0 0 0 0 0 0 0 0 
0 0 0 0 0 0 0 0 0 
0 0 0 0 0 0 0 0 0 
0 0 0 0 0 0 0 0 0 
0 0 0 0 0 0 0 0 0 
0 0 0 0 0 0 0 0 0 
0 0 0 0 0 0 0 0 0 
0 0 0 0 0 0 0 0 0 
0 0 0 0 0 0 0 0 0 
0 0 0 0 0 0 0 0 0 
0 0 0 0 0 0 0 0 0 
0 0 0 0 0 0 0 0 0 
0 0 0 0 0 0 0 0 0 
0 0 0 0 0 0 0 0 0 
0 0 0 0 0 0 0 0 0 
0 0 0 0 0 0 0 0 0 
0 0 0 0 0 0 0 0 0 
0 0 0 0 0 0 0 0 0 
0 0 0 0 0 0 0 0 0 
0 0 0 0 0 0 0 0 0 
0 0 0 0 0 0 0 0 0 
0 0 0 0 0 0 0 0 0 
0 0 0 0 0 0 0 0 0 
0 0 0 0 0 0 0 0 0 
0 0 0 0 0 0 0 0 0 
0 0 0 0 0 0 0 0 0 
0 0 0 0 0 0 0 0 0 
0 0 0 0 0 0 0 0 0 
0 0 0 0 0 0 0 0 0 
0 0 0 0 0 0 0 0 0 
0 0 0 0 0 0 0 0 0 
0 0 0 0 0 0 0 0 0 
0 0 0 0 0 0 0 0 0 
0 0 0 0 0 0 0 0 0 
0 0 0 0 0 0 0 0 0 
0 0 0 0 0 0 0 
il1 1 2500 double
1.2752657601e-25 4.2852110818e-23 1.3269883418e-20 3.7583600468e-18 9.4711147816e-16 2.0180847282e-13 3.2554962198e-11 3.0635600723e-09 3.2554962198e-11 
2.0180849992e-13 9.5316215214e-16 3.798482856e-18 1.3455211457e-20 4.3562647302e-23 1.4500231025e-25 4.8497306741e-24 1.1715249358e-21 1.8914622079e-19 
1.780914234e-17 1.8914622079e-19 1.1715249358e-21 4.8493674037e-24 1.4720625204e-26 3.9104743629e-29 9.2357815318e-32 1.9293115569e-34 1.107116869e-35 
2.712602539e-33 5.6989545992e-31 9.4359511233e-29 1.1019101095e-26 6.8154244343e-25 1.4945052433e-25 1.7750639555e-27 1.1730858851e-29 5.5430600682e-32 
2.0341817242e-34 5.8309325021e-37 1.1589410923e-39 2.5503632051e-43 1.1210387715e-44 3.5088513547e-42 1.1069781427e-39 3.1249417622e-37 7.7748849402e-35 
1.6744680459e-32 3.0189943055e-30 4.297106003e-28 4.3157054788e-26 2.3148198324e-24 6.1443669877e-24 2.2215092514e-21 7.5318651503e-19 2.3644712964e-16 
6.680527171e-14 1.6178721557e-11 3.0474605062e-09 3.4442527408e-07 3.0474605062e-09 1.6178721557e-11 6.6805285262e-14 2.3644728846e-16 7.531874456e-19 
2.2215250034e-21 1.0998114936e-23 1.5581714896e-21 3.7735074816e-19 7.1081410129e-17 8.0339296278e-15 7.1081410129e-17 3.7735074816e-19 1.5581553337e-21 
4.8376220537e-24 1.1745341544e-26 2.5996298686e-29 5.2634851938e-32 3.8843027982e-33 9.9487005178e-31 2.1963899717e-28 3.8469674104e-26 4.7546567634e-24 
3.0737943715e-22 8.2664103169e-23 1.005998222e-24 6.0922834079e-27 2.6990900067e-29 9.587602289e-32 2.8177212591e-34 6.7325270373e-37 1.1459426478e-39 
2.9175034027e-42 9.6520877703e-40 3.1139071534e-37 9.0382187952e-35 2.3356455616e-32 5.262710402e-30 9.982418458e-28 1.5016745098e-25 1.601362394e-23 
9.1962127718e-22 1.710010333e-25 5.8975146611e-23 1.8747277948e-20 5.4673429029e-18 1.4265652665e-15 3.1686166278e-13 5.4293524537e-11 5.5270095167e-09 
5.4293524537e-11 3.168580578e-13 1.4265333969e-15 5.4671733309e-18 1.8747287642e-20 6.1877763467e-23 1.1687938867e-21 3.7735074816e-19 1.066209406e-16 
2.4100845289e-14 3.4049315017e-12 2.4100845289e-14 1.066209406e-16 3.7735074816e-19 1.1686224325e-21 2.9025967403e-24 5.8727366387e-27 1.1145209886e-29 
1.2135193361e-30 3.2942790958e-28 7.6924926845e-26 1.4257532791e-23 1.8411541978e-21 1.3032734614e-19 3.957671167e-20 4.8170411617e-22 2.9794826739e-24 
1.2074658616e-26 4.0187754222e-29 1.1429350381e-31 2.7998865762e-34 5.7322218994e-37 1.495310177e-39 2.3346439564e-37 7.7437458194e-35 2.3343588361e-32 
6.3105678835e-30 1.4957725283e-27 2.9983089381e-25 4.7889136004e-23 5.4692790322e-21 3.4588231612e-19 2.2628630866e-24 9.0420766715e-22 3.408165328e-19 
1.2033924137e-16 3.8848603696e-14 1.0973656012e-11 2.4798665343e-09 3.5033241375e-07 2.4798665343e-09 1.0971612507e-11 3.8834143149e-14 1.2027526391e-16 
3.4059091929e-19 1.3716659904e-21 1.886810351e-19 7.1081403512e-17 2.4100845289e-14 6.8097211897e-12 1.2827416906e-09 6.8097211897e-12 2.4100845289e-14 
7.1081403512e-17 1.8867876035e-19 4.674583737e-22 9.6755446633e-25 1.6789665995e-27 3.321949172e-28 9.6145917231e-26 2.3757330288e-23 4.600312874e-21 
6.504015691e-19 5.2604147391e-17 1.8420635608e-17 1.9327423979e-19 1.192365e-21 4.9337289777e-24 1.5010947587e-26 3.9988838761e-29 9.4793898056e-32 
1.9903732079e-34 4.8605837623e-37 4.8383278603e-35 1.6667243299e-32 5.2560625582e-30 1.4947247262e-27 3.7441362483e-25 7.9689428603e-23 1.3632939774e-20 
1.7156347324e-18 1.2194403793e-16 4.2528797951e-26 1.8579975267e-22 6.9394598505e-20 2.3392717354e-17 6.6096483857e-15 1.2709390831e-12 2.1946501907e-11 
2.4797328635e-09 2.1940373129e-11 1.164788616e-13 4.8096341278e-16 1.7022967552e-18 5.5005055042e-21 3.7754329383e-20 1.7771403052e-17 8.0339296278e-15 
3.4049315017e-12 1.2827416906e-09 3.6243895352e-07 1.2827416906e-09 3.4049315017e-12 8.0339296278e-15 1.7771403052e-17 3.7738461087e-20 7.7915318292e-23 
1.3845241048e-25 7.7121692174e-26 2.3754394148e-23 6.1320865786e-21 1.2999908468e-18 2.1002267954e-16 1.9817215021e-14 8.2435745174e-15 7.2379838846e-17 
3.83478011e-19 1.5818980022e-21 4.9145079874e-24 1.1964888313e-26 2.656464964e-29 5.3975121209e-32 1.2064578363e-34 8.3312669876e-33 3.0023271122e-30 
9.9599640408e-28 2.9933440447e-25 7.9614846537e-23 1.8150615771e-20 3.4221225015e-18 4.8432306309e-16 3.9307532923e-14 6.797320964e-23 3.1986153403e-20 
1.4460442251e-17 6.1286984195e-15 2.3088950456e-12 6.5238475733e-10 2.4253667651e-12 1.0976559939e-11 1.1648955455e-13 7.2143024315e-16 3.4043346029e-18 
1.3554753435e-20 4.856337542e-23 4.6760756307e-22 1.8867876035e-19 7.1081403512e-17 2.4100845289e-14 6.8097211897e-12 1.2827416906e-09 6.8097211897e-12 
2.4100845289e-14 7.1081403512e-17 1.8867876035e-19 4.674583737e-22 1.2296445091e-23 4.0132790108e-26 1.4251662088e-23 4.5983778045e-21 1.2996013482e-18 
3.148407436e-16 5.9341773032e-14 6.7190944648e-12 3.4641666705e-12 2.4415307964e-14 1.0791937593e-16 3.819462276e-19 1.182868175e-21 2.9410402987e-24 
5.9668302572e-27 1.1354565242e-29 2.2961020786e-32 1.1255997878e-30 4.2670831625e-28 1.496000258e-25 4.7739968718e-23 1.360121449e-20 3.4176046478e-18 
7.2476903527e-16 1.1719270031e-13 1.108666544e-11 6.4085292892e-21 3.615251597e-18 2.0429483893e-15 1.154460208e-12 6.5238403568e-10 3.6866367736e-07 
6.5238447977e-10 1.1932876562e-12 2.5238805678e-15 7.0194315171e-18 2.4469401618e-20 9.0650335336e-23 3.042378406e-25 2.9035897189e-24 1.1686224325e-21 
3.7735074816e-19 1.066209406e-16 2.4100845289e-14 3.4049315017e-12 2.4100845289e-14 1.066209406e-16 3.7735074816e-19 1.1686224325e-21 7.0875403667e-23 
6.397217352e-21 7.2723256695e-23 1.8392191283e-21 6.4970043013e-19 2.0983401619e-16 5.9306238306e-14 1.3413668613e-11 1.8984580574e-09 1.2961312024e-09 
6.8689563586e-12 2.4310491025e-14 7.1730641031e-17 1.9051701417e-19 4.7220713964e-22 9.7853896001e-25 1.7014968983e-27 3.0828947427e-30 1.0665801236e-28 
4.2730348831e-26 1.5907074076e-23 5.437552536e-21 1.7075027198e-18 4.826211092e-16 1.1695225138e-13 2.2055898774e-11 2.5016055893e-09 6.79727805e-23 
3.1986001538e-20 1.4460394274e-17 6.128684867e-15 2.3088915762e-12 6.5238403568e-10 2.3088933109e-12 6.2489292407e-15 1.6162518562e-17 4.5540076426e-20 
1.4729263723e-22 3.7294395231e-25 1.515632429e-27 1.1761727356e-26 4.8392999608e-24 1.5582935674e-21 3.7735074816e-19 7.1081403512e-17 8.0339296278e-15 
7.1081403512e-17 3.7735074816e-19 1.5581553337e-21 1.7476957133e-22 3.1986014462e-20 3.6152520106e-18 3.2292552734e-20 1.3010774261e-19 5.2453206782e-17 
1.9763904462e-14 6.703027456e-12 1.8950534475e-09 3.5760655237e-07 3.6433061723e-07 1.2894366686e-09 3.4246776422e-12 8.0863448736e-15 1.790126379e-17 
3.8044873342e-20 7.859380809e-23 1.396060949e-25 2.2423031786e-28 5.3412323593e-27 2.2720905899e-24 9.0602368807e-22 3.4136438486e-19 1.2058241923e-16 
3.894685613e-14 1.1009020952e-11 2.4906363638e-09 3.5279589383e-07 1.6891131688e-27 1.7007018177e-22 6.3972009537e-20 2.1690421012e-17 6.128684867e-15 
1.154460208e-12 6.1286903727e-15 2.2030888552e-17 6.9393823024e-20 2.1752419156e-22 2.9835269173e-25 1.4896480711e-27 3.2423418809e-29 5.9143683107e-27 
9.8223615385e-25 8.2752941529e-23 1.1695899672e-21 1.8867877327e-19 1.7771403052e-17 1.8867876035e-19 1.1686224325e-21 2.3141354562e-22 6.3972022462e-20 
1.4460394274e-17 2.0429483893e-15 1.4460399237e-17 6.5811226242e-20 6.4992702592e-19 2.0983401619e-16 5.9306238306e-14 1.3413668613e-11 1.8984580574e-09 
1.2961312024e-09 6.8689563586e-12 2.4310491025e-14 7.1730641031e-17 1.9051701417e-19 4.7220713964e-22 9.7853896001e-25 1.1330498323e-23 3.0995135997e-30 
1.096520149e-28 4.3155933127e-26 1.5949697808e-23 5.4398196086e-21 1.7075028232e-18 4.826211092e-16 1.1695225138e-13 2.2055898774e-11 2.5016055893e-09 
9.7342723995e-25 7.7915343536e-23 2.2754358334e-22 6.3972022462e-20 1.4460394274e-17 2.0429483893e-15 1.4460409164e-17 6.4875775443e-20 2.424407356e-22 
1.4917867547e-25 9.9314930184e-28 4.4447044591e-29 1.1768889504e-26 2.9039699499e-24 4.6745842419e-22 3.7738474011e-20 4.7036092745e-22 4.7036092745e-22 