# vtk DataFile Version 5.1
vtk output
ASCII
DATASET STRUCTURED_POINTS
DIMENSIONS 50 50 1
SPACING 1 1 1
ORIGIN 0 0 0
POINT_DATA 2500
FIELD FieldData 10
CellType 1 2500 char
0 0 0 0 0 0 0 0 0 
0 0 0 0 10 0 10 0 0 
0 0 0 0 0 0 0 0 0 
0 0 0 0 0 0 0 0 0 
0 0 0 0 0 10 0 0 0 
0 0 0 0 0 0 0 0 0 
0 0 0 0 0 0 0 0 0 
0 0 0 0 0 0 0 0 0 
0 10 0 0 0 0 0 0 0 
0 0 0 0 0 0 0 0 0 
0 0 0 0 0 9 0 0 0 
0 0 0 0 0 0 0 0 0 
0 0 0 0 0 0 0 0 0 
10 0 0 0 0 0 0 0 0 
0 0 0 0 0 0 0 0 0 
0 0 0 0 0 0 0 0 0 
0 10 0 0 0 0 0 0 0 
0 0 0 10 0 0 0 0 0 
0 0 0 0 0 0 0 0 0 
0 0 0 0 9 0 0 0 0 
0 0 0 0 0 0 0 0 0 
0 0 0 0 0 0 0 0 0 
0 0 0 0 0 0 0 0 0 
0 0 0 0 0 0 0 0 9 
0 0 0 0 0 0 0 0 0 
0 0 0 0 0 0 0 0 0 
0 0 0 0 0 0 0 0 0 
0 0 0 0 0 0 0 0 0 
0 0 0 0 0 0 0 0 0 
0 0 0 0 0 0 0 0 0 
0 0 0 0 0 0 0 0 0 
0 0 10 0 0 0 0 0 10 
0 0 9 0 0 0 0 0 0 
0 0 0 0 0 0 9 0 0 
0 0 0 0 0 0 0 0 0 
0 0 0 0 0 0 0 0 0 
0 0 0 0 0 0 0 0 0 
0 0 0 0 0 0 0 0 0 
0 0 0 6 0 0 0 0 0 
0 0 0 0 0 0 0 0 0 
0 0 0 0 9 0 0 0 0 
0 0 0 1 0 0 0 0 0 
0 0 0 0 0 0 0 0 0 
0 0 0 0 0 0 0 0 0 
0 0 0 0 0 0 0 0 0 
0 0 0 1 0 0 0 0 0 
0 0 0 0 0 0 0 0 1 
0 0 0 0 0 0 1 0 0 
0 9 0 1 0 0 9 0 0 
0 0 0 0 0 0 0 0 0 
0 0 0 0 0 0 0 0 0 
0 0 0 1 0 0 0 0 0 
0 0 0 0 0 0 0 0 0 
0 0 0 0 0 0 0 0 0 
0 0 0 1 0 0 0 0 0 
0 0 0 0 0 0 0 0 0 
0 0 0 0 0 0 0 1 0 
0 0 0 0 0 0 0 0 10 
0 0 0 0 0 0 0 0 1 
1 0 0 0 0 0 0 0 0 
0 0 0 0 0 0 0 0 0 
0 0 0 0 0 0 0 0 0 
0 0 0 0 0 0 0 1 0 
0 1 0 0 0 0 0 0 0 
0 0 0 0 0 0 0 0 0 
0 0 0 0 0 0 0 0 0 
0 0 0 0 0 0 0 0 0 
0 0 0 0 0 0 0 0 0 
0 0 0 0 0 0 0 0 0 
0 0 0 0 0 0 0 0 1 
0 0 0 0 0 0 0 0 0 
1 0 1 0 0 0 0 0 0 
0 0 0 0 0 0 0 0 0 
0 0 9 0 1 0 0 0 0 
1 0 0 0 0 0 0 0 0 
0 0 9 0 0 0 0 0 1 
0 0 0 0 0 0 0 0 0 
0 0 0 0 0 0 0 0 0 
0 0 0 0 0 0 0 0 0 
0 9 0 0 1 10 1 0 0 
0 0 1 0 0 0 0 0 0 
10 0 0 0 0 0 0 0 0 
0 0 0 0 0 0 0 0 0 
0 10 0 0 0 0 0 0 0 
0 0 0 0 0 1 0 0 0 
0 0 0 0 1 0 0 0 0 
0 0 0 0 0 0 0 0 0 
0 0 0 0 0 0 0 0 0 
0 0 0 0 0 0 10 0 0 
0 0 0 0 0 0 0 0 0 
1 0 0 0 0 0 0 0 0 
0 0 0 0 0 0 0 0 0 
0 0 0 0 0 0 0 1 1 
0 0 0 0 0 0 0 0 0 
0 0 0 0 0 0 0 0 0 
0 0 0 0 0 0 0 0 0 
0 0 0 0 0 1 0 0 0 
0 0 0 0 0 0 0 0 0 
0 0 0 0 0 0 0 0 0 
0 0 0 10 0 0 0 0 0 
0 0 0 0 0 0 0 0 1 
0 0 0 0 0 0 0 0 0 
0 0 0 0 0 1 0 0 0 
0 0 0 0 0 0 0 1 0 
0 0 0 0 0 0 0 0 10 
10 0 0 0 0 0 0 0 0 
0 0 0 0 0 0 0 0 0 
0 0 0 0 0 0 1 0 0 
0 0 0 1 0 0 0 0 0 
1 0 0 0 0 0 0 0 0 
0 0 0 0 0 0 0 0 0 
0 0 0 0 0 0 0 0 0 
0 0 0 0 0 0 0 0 0 
0 0 1 1 0 0 0 0 9 
0 1 0 0 0 0 0 0 0 
0 0 0 0 0 10 0 0 0 
0 0 0 0 0 0 0 0 0 
0 10 0 0 0 0 0 0 0 
0 0 0 0 1 0 0 0 0 
0 0 0 0 0 0 0 0 0 
0 10 0 0 0 0 0 0 0 
0 0 0 0 0 0 0 0 0 
0 0 0 0 0 0 0 0 0 
0 0 0 0 0 0 0 0 0 
0 0 0 0 0 0 0 0 0 
0 1 0 0 0 0 10 0 0 
0 0 1 0 0 0 0 0 0 
0 0 0 0 0 0 0 0 0 
0 0 0 0 0 0 0 0 0 
0 0 0 0 0 9 0 0 0 
0 0 0 0 0 0 4 1 0 
0 0 0 0 0 0 0 1 0 
0 0 1 0 0 0 0 0 0 
0 0 0 0 0 0 0 0 0 
0 0 0 0 0 0 0 1 0 
0 0 0 1 0 0 0 0 0 
0 1 1 0 0 0 0 0 0 
0 0 0 0 0 0 0 0 0 
0 0 0 0 0 9 0 0 0 
0 0 0 0 0 0 0 0 0 
0 0 0 0 0 0 0 0 0 
0 0 0 0 0 0 0 0 0 
0 0 0 0 0 0 0 1 0 
0 0 0 0 0 0 0 0 0 
0 0 0 0 0 0 0 0 0 
0 0 0 0 0 0 0 0 0 
0 0 0 0 1 0 0 0 0 
1 0 0 0 0 0 0 0 0 
0 0 0 0 0 0 1 1 0 
0 0 0 0 0 0 0 0 0 
0 0 0 0 0 0 0 1 0 
0 0 0 0 1 0 0 0 0 
0 0 0 0 0 0 1 0 0 
1 0 0 0 0 0 0 0 0 
1 0 0 0 0 0 0 0 0 
0 0 0 0 0 0 0 0 0 
0 0 0 0 0 9 0 0 0 
0 0 0 0 0 0 0 0 0 
0 0 0 10 10 0 0 0 0 
0 0 0 0 0 0 0 0 1 
0 0 0 0 0 0 0 0 0 
0 0 0 0 0 0 0 0 0 
0 0 0 0 0 0 0 0 0 
0 0 0 0 0 0 0 0 0 
0 0 1 0 0 0 0 1 0 
0 0 0 1 0 0 0 1 0 
0 0 0 0 0 0 0 0 0 
0 0 0 0 0 0 0 0 0 
0 0 0 0 0 0 0 0 0 
0 0 0 0 0 0 0 0 0 
0 0 0 0 0 0 0 0 0 
0 0 0 0 0 0 0 0 10 
0 0 0 0 0 0 0 0 0 
9 0 0 0 0 0 0 0 1 
0 0 0 0 0 1 0 0 0 
0 0 0 0 0 0 0 0 0 
0 0 0 0 0 0 0 0 0 
0 0 0 0 0 0 0 0 0 
0 0 9 0 0 3 0 0 0 
1 0 0 0 0 0 1 1 0 
0 0 0 1 0 0 0 0 0 
0 0 0 0 0 0 0 0 0 
0 0 0 0 0 0 0 0 0 
0 0 0 0 0 0 0 0 0 
0 0 0 0 0 1 0 0 0 
0 0 0 0 0 0 1 0 0 
0 0 0 0 0 0 1 0 0 
0 0 0 0 0 0 0 0 1 
0 0 10 0 0 0 0 0 0 
0 0 9 0 0 0 0 0 0 
0 0 1 0 0 0 0 0 0 
0 1 0 0 1 0 0 0 0 
0 0 0 0 0 10 0 0 0 
0 0 0 0 0 0 0 0 0 
0 0 0 0 0 0 0 0 0 
0 0 0 0 0 0 0 0 0 
0 0 0 0 1 0 0 0 0 
0 0 0 0 0 1 0 0 0 
0 0 0 0 0 0 0 0 1 
1 0 0 0 0 0 0 0 0 
0 0 0 0 0 0 0 0 0 
0 0 0 0 0 0 0 0 0 
0 1 0 0 0 0 0 0 0 
0 0 0 10 0 0 0 0 0 
0 0 0 0 0 0 0 0 0 
0 0 0 0 0 0 0 0 0 
0 0 0 0 0 0 0 1 0 
0 0 0 0 0 1 10 1 0 
0 1 0 0 0 0 0 0 0 
0 0 1 0 0 0 0 0 0 
0 1 0 0 0 0 0 0 0 
0 0 0 0 0 0 0 0 0 
0 0 0 0 0 0 0 0 0 
0 0 0 0 0 0 0 0 0 
0 0 0 0 0 0 1 0 0 
0 0 0 0 0 0 0 0 0 
0 0 0 0 0 0 0 0 0 
0 0 0 0 0 0 0 0 0 
1 0 0 0 0 0 0 0 0 
0 0 0 0 0 0 0 0 0 
0 0 0 0 0 0 0 0 0 
0 1 0 0 0 0 0 0 0 
0 0 0 0 0 7 0 0 0 
0 0 0 1 0 0 0 0 0 
0 0 0 0 10 0 0 0 0 
0 0 1 0 0 0 0 0 1 
0 0 0 0 0 0 0 0 0 
0 0 0 0 0 0 0 0 0 
0 0 0 0 0 0 0 0 0 
0 0 0 10 0 9 0 0 0 
0 0 0 0 0 0 0 0 0 
0 0 0 0 0 0 0 0 0 
0 0 0 0 1 0 0 0 0 
0 0 0 0 0 0 0 0 0 
0 0 0 0 0 0 0 0 0 
0 0 0 0 0 0 0 0 0 
0 0 0 0 0 0 0 0 0 
0 0 0 0 0 0 0 1 0 
0 0 0 0 0 0 0 10 0 
0 9 0 0 0 0 0 0 0 
0 0 9 0 0 0 0 0 0 
0 0 0 0 0 0 0 0 0 
0 0 0 0 0 0 0 0 0 
9 0 0 0 0 0 0 0 0 
0 0 0 0 0 0 0 0 0 
0 0 0 0 9 0 0 0 0 
0 0 0 0 0 0 0 0 0 
0 0 0 0 0 0 0 0 0 
0 0 0 0 0 0 0 0 0 
0 0 0 0 0 0 0 0 0 
0 0 0 0 0 0 0 0 0 
0 0 0 0 0 0 0 0 0 
0 0 0 0 0 0 0 0 0 
0 0 0 0 0 0 0 0 0 
0 0 0 0 9 9 0 0 0 
0 0 0 0 0 0 0 0 10 
0 0 0 0 0 0 0 0 0 
0 0 0 0 0 0 0 0 0 
10 0 0 0 0 0 0 0 0 
0 0 0 0 0 0 0 0 0 
0 0 0 0 0 0 0 0 0 
0 0 0 0 0 0 0 0 0 
0 9 0 0 0 0 0 0 0 
0 0 0 0 0 0 0 0 0 
0 0 0 0 0 0 9 0 0 
0 0 0 9 0 0 0 0 0 
0 0 0 0 0 0 0 0 0 
0 0 0 0 0 0 9 0 0 
0 0 0 0 0 0 0 0 0 
0 0 0 0 0 0 0 0 0 
0 0 0 0 0 0 0 0 0 
0 0 0 0 0 0 0 0 0 
0 0 0 9 0 0 0 0 0 
0 0 9 0 0 0 0 0 0 
0 0 0 0 0 0 0 0 0 
0 0 0 10 0 0 0 0 0 
0 0 0 0 0 0 0 0 0 
0 0 0 0 0 0 0 
CellId 1 2500 long
0 0 0 0 0 0 0 0 0 
0 0 0 0 351 0 220 0 0 
0 0 0 0 0 0 0 0 0 
0 0 0 0 0 0 0 0 0 
0 0 0 0 0 352 0 0 0 
0 0 0 0 0 0 0 0 0 
0 0 0 0 0 0 0 0 0 
0 0 0 0 0 0 0 0 0 
0 365 0 0 0 0 0 0 0 
0 0 0 0 0 0 0 0 0 
0 0 0 0 0 450 0 0 0 
0 0 0 0 0 0 0 0 0 
0 0 0 0 0 0 0 0 0 
390 0 0 0 0 0 0 0 0 
0 0 0 0 0 0 0 0 0 
0 0 0 0 0 0 0 0 0 
0 403 0 0 0 0 0 0 0 
0 0 0 212 0 0 0 0 0 
0 0 0 0 0 0 0 0 0 
0 0 0 0 426 0 0 0 0 
0 0 0 0 0 0 0 0 0 
0 0 0 0 0 0 0 0 0 
0 0 0 0 0 0 0 0 0 
0 0 0 0 0 0 0 0 453 
0 0 0 0 0 0 0 0 0 
0 0 0 0 0 0 0 0 0 
0 0 0 0 0 0 0 0 0 
0 0 0 0 0 0 0 0 0 
0 0 0 0 0 0 0 0 0 
0 0 0 0 0 0 0 0 0 
0 0 0 0 0 0 0 0 0 
0 0 404 0 0 0 0 0 417 
0 0 446 0 0 0 0 0 0 
0 0 0 0 0 0 406 0 0 
0 0 0 0 0 0 0 0 0 
0 0 0 0 0 0 0 0 0 
0 0 0 0 0 0 0 0 0 
0 0 0 0 0 0 0 0 0 
0 0 0 441 0 0 0 0 0 
0 0 0 0 0 0 0 0 0 
0 0 0 0 425 0 0 0 0 
0 0 0 77 0 0 0 0 0 
0 0 0 0 0 0 0 0 0 
0 0 0 0 0 0 0 0 0 
0 0 0 0 0 0 0 0 0 
0 0 0 63 0 0 0 0 0 
0 0 0 0 0 0 0 0 78 
0 0 0 0 0 0 43 0 0 
0 419 0 11 0 0 432 0 0 
0 0 0 0 0 0 0 0 0 
0 0 0 0 0 0 0 0 0 
0 0 0 62 0 0 0 0 0 
0 0 0 0 0 0 0 0 0 
0 0 0 0 0 0 0 0 0 
0 0 0 71 0 0 0 0 0 
0 0 0 0 0 0 0 0 0 
0 0 0 0 0 0 0 38 0 
0 0 0 0 0 0 0 0 326 
0 0 0 0 0 0 0 0 67 
100 0 0 0 0 0 0 0 0 
0 0 0 0 0 0 0 0 0 
0 0 0 0 0 0 0 0 0 
0 0 0 0 0 0 0 96 0 
0 25 0 0 0 0 0 0 0 
0 0 0 0 0 0 0 0 0 
0 0 0 0 0 0 0 0 0 
0 0 0 0 0 0 0 0 0 
0 0 0 0 0 0 0 0 0 
0 0 0 0 0 0 0 0 0 
0 0 0 0 0 0 0 0 68 
0 0 0 0 0 0 0 0 0 
31 0 7 0 0 0 0 0 0 
0 0 0 0 0 0 0 0 0 
0 0 423 0 69 0 0 0 0 
22 0 0 0 0 0 0 0 0 
0 0 411 0 0 0 0 0 33 
0 0 0 0 0 0 0 0 0 
0 0 0 0 0 0 0 0 0 
0 0 0 0 0 0 0 0 0 
0 413 0 0 8 339 61 0 0 
0 0 60 0 0 0 0 0 0 
216 0 0 0 0 0 0 0 0 
0 0 0 0 0 0 0 0 0 
0 416 0 0 0 0 0 0 0 
0 0 0 0 0 23 0 0 0 
0 0 0 0 85 0 0 0 0 
0 0 0 0 0 0 0 0 0 
0 0 0 0 0 0 0 0 0 
0 0 0 0 0 0 222 0 0 
0 0 0 0 0 0 0 0 0 
5 0 0 0 0 0 0 0 0 
0 0 0 0 0 0 0 0 0 
0 0 0 0 0 0 0 86 53 
0 0 0 0 0 0 0 0 0 
0 0 0 0 0 0 0 0 0 
0 0 0 0 0 0 0 0 0 
0 0 0 0 0 72 0 0 0 
0 0 0 0 0 0 0 0 0 
0 0 0 0 0 0 0 0 0 
0 0 0 338 0 0 0 0 0 
0 0 0 0 0 0 0 0 59 
0 0 0 0 0 0 0 0 0 
0 0 0 0 0 97 0 0 0 
0 0 0 0 0 0 0 51 0 
0 0 0 0 0 0 0 0 214 
214 0 0 0 0 0 0 0 0 
0 0 0 0 0 0 0 0 0 
0 0 0 0 0 0 54 0 0 
0 0 0 70 0 0 0 0 0 
3 0 0 0 0 0 0 0 0 
0 0 0 0 0 0 0 0 0 
0 0 0 0 0 0 0 0 0 
0 0 0 0 0 0 0 0 0 
0 0 42 57 0 0 0 0 439 
0 76 0 0 0 0 0 0 0 
0 0 0 0 0 443 0 0 0 
0 0 0 0 0 0 0 0 0 
0 223 0 0 0 0 0 0 0 
0 0 0 0 66 0 0 0 0 
0 0 0 0 0 0 0 0 0 
0 377 0 0 0 0 0 0 0 
0 0 0 0 0 0 0 0 0 
0 0 0 0 0 0 0 0 0 
0 0 0 0 0 0 0 0 0 
0 0 0 0 0 0 0 0 0 
0 84 0 0 0 0 377 0 0 
0 0 40 0 0 0 0 0 0 
0 0 0 0 0 0 0 0 0 
0 0 0 0 0 0 0 0 0 
0 0 0 0 0 438 0 0 0 
0 0 0 0 0 0 215 34 0 
0 0 0 0 0 0 0 88 0 
0 0 82 0 0 0 0 0 0 
0 0 0 0 0 0 0 0 0 
0 0 0 0 0 0 0 44 0 
0 0 0 29 0 0 0 0 0 
0 2 91 0 0 0 0 0 0 
0 0 0 0 0 0 0 0 0 
0 0 0 0 0 436 0 0 0 
0 0 0 0 0 0 0 0 0 
0 0 0 0 0 0 0 0 0 
0 0 0 0 0 0 0 0 0 
0 0 0 0 0 0 0 27 0 
0 0 0 0 0 0 0 0 0 
0 0 0 0 0 0 0 0 0 
0 0 0 0 0 0 0 0 0 
0 0 0 0 98 0 0 0 0 
10 0 0 0 0 0 0 0 0 
0 0 0 0 0 0 4 58 0 
0 0 0 0 0 0 0 0 0 
0 0 0 0 0 0 0 73 0 
0 0 0 0 75 0 0 0 0 
0 0 0 0 0 0 13 0 0 
55 0 0 0 0 0 0 0 0 
32 0 0 0 0 0 0 0 0 
0 0 0 0 0 0 0 0 0 
0 0 0 0 0 435 0 0 0 
0 0 0 0 0 0 0 0 0 
0 0 0 325 325 0 0 0 0 
0 0 0 0 0 0 0 0 49 
0 0 0 0 0 0 0 0 0 
0 0 0 0 0 0 0 0 0 
0 0 0 0 0 0 0 0 0 
0 0 0 0 0 0 0 0 0 
0 0 47 0 0 0 0 89 0 
0 0 0 37 0 0 0 30 0 
0 0 0 0 0 0 0 0 0 
0 0 0 0 0 0 0 0 0 
0 0 0 0 0 0 0 0 0 
0 0 0 0 0 0 0 0 0 
0 0 0 0 0 0 0 0 0 
0 0 0 0 0 0 0 0 430 
0 0 0 0 0 0 0 0 0 
445 0 0 0 0 0 0 0 95 
0 0 0 0 0 90 0 0 0 
0 0 0 0 0 0 0 0 0 
0 0 0 0 0 0 0 0 0 
0 0 0 0 0 0 0 0 0 
0 0 448 0 0 452 0 0 0 
83 0 0 0 0 0 52 87 0 
0 0 0 14 0 0 0 0 0 
0 0 0 0 0 0 0 0 0 
0 0 0 0 0 0 0 0 0 
0 0 0 0 0 0 0 0 0 
0 0 0 0 0 9 0 0 0 
0 0 0 0 0 0 21 0 0 
0 0 0 0 0 0 99 0 0 
0 0 0 0 0 0 0 0 64 
0 0 429 0 0 0 0 0 0 
0 0 437 0 0 0 0 0 0 
0 0 26 0 0 0 0 0 0 
0 80 0 0 45 0 0 0 0 
0 0 0 0 0 221 0 0 0 
0 0 0 0 0 0 0 0 0 
0 0 0 0 0 0 0 0 0 
0 0 0 0 0 0 0 0 0 
0 0 0 0 1 0 0 0 0 
0 0 0 0 0 94 0 0 0 
0 0 0 0 0 0 0 0 93 
35 0 0 0 0 0 0 0 0 
0 0 0 0 0 0 0 0 0 
0 0 0 0 0 0 0 0 0 
0 15 0 0 0 0 0 0 0 
0 0 0 364 0 0 0 0 0 
0 0 0 0 0 0 0 0 0 
0 0 0 0 0 0 0 0 0 
0 0 0 0 0 0 0 39 0 
0 0 0 0 0 19 217 46 0 
0 36 0 0 0 0 0 0 0 
0 0 50 0 0 0 0 0 0 
0 17 0 0 0 0 0 0 0 
0 0 0 0 0 0 0 0 0 
0 0 0 0 0 0 0 0 0 
0 0 0 0 0 0 0 0 0 
0 0 0 0 0 0 18 0 0 
0 0 0 0 0 0 0 0 0 
0 0 0 0 0 0 0 0 0 
0 0 0 0 0 0 0 0 0 
20 0 0 0 0 0 0 0 0 
0 0 0 0 0 0 0 0 0 
0 0 0 0 0 0 0 0 0 
0 24 0 0 0 0 0 0 0 
0 0 0 0 0 451 0 0 0 
0 0 0 74 0 0 0 0 0 
0 0 0 0 211 0 0 0 0 
0 0 6 0 0 0 0 0 56 
0 0 0 0 0 0 0 0 0 
0 0 0 0 0 0 0 0 0 
0 0 0 0 0 0 0 0 0 
0 0 0 218 0 410 0 0 0 
0 0 0 0 0 0 0 0 0 
0 0 0 0 0 0 0 0 0 
0 0 0 0 16 0 0 0 0 
0 0 0 0 0 0 0 0 0 
0 0 0 0 0 0 0 0 0 
0 0 0 0 0 0 0 0 0 
0 0 0 0 0 0 0 0 0 
0 0 0 0 0 0 0 81 0 
0 0 0 0 0 0 0 442 0 
0 444 0 0 0 0 0 0 0 
0 0 433 0 0 0 0 0 0 
0 0 0 0 0 0 0 0 0 
0 0 0 0 0 0 0 0 0 
431 0 0 0 0 0 0 0 0 
0 0 0 0 0 0 0 0 0 
0 0 0 0 447 0 0 0 0 
0 0 0 0 0 0 0 0 0 
0 0 0 0 0 0 0 0 0 
0 0 0 0 0 0 0 0 0 
0 0 0 0 0 0 0 0 0 
0 0 0 0 0 0 0 0 0 
0 0 0 0 0 0 0 0 0 
0 0 0 0 0 0 0 0 0 
0 0 0 0 0 0 0 0 0 
0 0 0 0 434 434 0 0 0 
0 0 0 0 0 0 0 0 213 
0 0 0 0 0 0 0 0 0 
0 0 0 0 0 0 0 0 0 
219 0 0 0 0 0 0 0 0 
0 0 0 0 0 0 0 0 0 
0 0 0 0 0 0 0 0 0 
0 0 0 0 0 0 0 0 0 
0 405 0 0 0 0 0 0 0 
0 0 0 0 0 0 0 0 0 
0 0 0 0 0 0 449 0 0 
0 0 0 427 0 0 0 0 0 
0 0 0 0 0 0 0 0 0 
0 0 0 0 0 0 405 0 0 
0 0 0 0 0 0 0 0 0 
0 0 0 0 0 0 0 0 0 
0 0 0 0 0 0 0 0 0 
0 0 0 0 0 0 0 0 0 
0 0 0 422 0 0 0 0 0 
0 0 405 0 0 0 0 0 0 
0 0 0 0 0 0 0 0 0 
0 0 0 391 0 0 0 0 0 
0 0 0 0 0 0 0 0 0 
0 0 0 0 0 0 0 
ClusterId 1 2500 long
0 0 0 0 0 0 0 0 0 
0 0 0 0 351 0 220 0 0 
0 0 0 0 0 0 0 0 0 
0 0 0 0 0 0 0 0 0 
0 0 0 0 0 352 0 0 0 
0 0 0 0 0 0 0 0 0 
0 0 0 0 0 0 0 0 0 
0 0 0 0 0 0 0 0 0 
0 365 0 0 0 0 0 0 0 
0 0 0 0 0 0 0 0 0 
0 0 0 0 0 450 0 0 0 
0 0 0 0 0 0 0 0 0 
0 0 0 0 0 0 0 0 0 
390 0 0 0 0 0 0 0 0 
0 0 0 0 0 0 0 0 0 
0 0 0 0 0 0 0 0 0 
0 403 0 0 0 0 0 0 0 
0 0 0 212 0 0 0 0 0 
0 0 0 0 0 0 0 0 0 
0 0 0 0 426 0 0 0 0 
0 0 0 0 0 0 0 0 0 
0 0 0 0 0 0 0 0 0 
0 0 0 0 0 0 0 0 0 
0 0 0 0 0 0 0 0 453 
0 0 0 0 0 0 0 0 0 
0 0 0 0 0 0 0 0 0 
0 0 0 0 0 0 0 0 0 
0 0 0 0 0 0 0 0 0 
0 0 0 0 0 0 0 0 0 
0 0 0 0 0 0 0 0 0 
0 0 0 0 0 0 0 0 0 
0 0 404 0 0 0 0 0 417 
0 0 446 0 0 0 0 0 0 
0 0 0 0 0 0 406 0 0 
0 0 0 0 0 0 0 0 0 
0 0 0 0 0 0 0 0 0 
0 0 0 0 0 0 0 0 0 
0 0 0 0 0 0 0 0 0 
0 0 0 441 0 0 0 0 0 
0 0 0 0 0 0 0 0 0 
0 0 0 0 425 0 0 0 0 
0 0 0 77 0 0 0 0 0 
0 0 0 0 0 0 0 0 0 
0 0 0 0 0 0 0 0 0 
0 0 0 0 0 0 0 0 0 
0 0 0 63 0 0 0 0 0 
0 0 0 0 0 0 0 0 78 
0 0 0 0 0 0 43 0 0 
0 419 0 11 0 0 432 0 0 
0 0 0 0 0 0 0 0 0 
0 0 0 0 0 0 0 0 0 
0 0 0 62 0 0 0 0 0 
0 0 0 0 0 0 0 0 0 
0 0 0 0 0 0 0 0 0 
0 0 0 71 0 0 0 0 0 
0 0 0 0 0 0 0 0 0 
0 0 0 0 0 0 0 38 0 
0 0 0 0 0 0 0 0 326 
0 0 0 0 0 0 0 0 67 
100 0 0 0 0 0 0 0 0 
0 0 0 0 0 0 0 0 0 
0 0 0 0 0 0 0 0 0 
0 0 0 0 0 0 0 96 0 
0 25 0 0 0 0 0 0 0 
0 0 0 0 0 0 0 0 0 
0 0 0 0 0 0 0 0 0 
0 0 0 0 0 0 0 0 0 
0 0 0 0 0 0 0 0 0 
0 0 0 0 0 0 0 0 0 
0 0 0 0 0 0 0 0 68 
0 0 0 0 0 0 0 0 0 
31 0 7 0 0 0 0 0 0 
0 0 0 0 0 0 0 0 0 
0 0 423 0 69 0 0 0 0 
22 0 0 0 0 0 0 0 0 
0 0 411 0 0 0 0 0 33 
0 0 0 0 0 0 0 0 0 
0 0 0 0 0 0 0 0 0 
0 0 0 0 0 0 0 0 0 
0 413 0 0 8 339 61 0 0 
0 0 60 0 0 0 0 0 0 
216 0 0 0 0 0 0 0 0 
0 0 0 0 0 0 0 0 0 
0 416 0 0 0 0 0 0 0 
0 0 0 0 0 23 0 0 0 
0 0 0 0 85 0 0 0 0 
0 0 0 0 0 0 0 0 0 
0 0 0 0 0 0 0 0 0 
0 0 0 0 0 0 222 0 0 
0 0 0 0 0 0 0 0 0 
5 0 0 0 0 0 0 0 0 
0 0 0 0 0 0 0 0 0 
0 0 0 0 0 0 0 86 53 
0 0 0 0 0 0 0 0 0 
0 0 0 0 0 0 0 0 0 
0 0 0 0 0 0 0 0 0 
0 0 0 0 0 72 0 0 0 
0 0 0 0 0 0 0 0 0 
0 0 0 0 0 0 0 0 0 
0 0 0 338 0 0 0 0 0 
0 0 0 0 0 0 0 0 59 
0 0 0 0 0 0 0 0 0 
0 0 0 0 0 97 0 0 0 
0 0 0 0 0 0 0 51 0 
0 0 0 0 0 0 0 0 214 
214 0 0 0 0 0 0 0 0 
0 0 0 0 0 0 0 0 0 
0 0 0 0 0 0 54 0 0 
0 0 0 70 0 0 0 0 0 
3 0 0 0 0 0 0 0 0 
0 0 0 0 0 0 0 0 0 
0 0 0 0 0 0 0 0 0 
0 0 0 0 0 0 0 0 0 
0 0 42 57 0 0 0 0 439 
0 76 0 0 0 0 0 0 0 
0 0 0 0 0 443 0 0 0 
0 0 0 0 0 0 0 0 0 
0 223 0 0 0 0 0 0 0 
0 0 0 0 66 0 0 0 0 
0 0 0 0 0 0 0 0 0 
0 377 0 0 0 0 0 0 0 
0 0 0 0 0 0 0 0 0 
0 0 0 0 0 0 0 0 0 
0 0 0 0 0 0 0 0 0 
0 0 0 0 0 0 0 0 0 
0 84 0 0 0 0 377 0 0 
0 0 40 0 0 0 0 0 0 
0 0 0 0 0 0 0 0 0 
0 0 0 0 0 0 0 0 0 
0 0 0 0 0 438 0 0 0 
0 0 0 0 0 0 215 34 0 
0 0 0 0 0 0 0 88 0 
0 0 82 0 0 0 0 0 0 
0 0 0 0 0 0 0 0 0 
0 0 0 0 0 0 0 44 0 
0 0 0 29 0 0 0 0 0 
0 2 91 0 0 0 0 0 0 
0 0 0 0 0 0 0 0 0 
0 0 0 0 0 436 0 0 0 
0 0 0 0 0 0 0 0 0 
0 0 0 0 0 0 0 0 0 
0 0 0 0 0 0 0 0 0 
0 0 0 0 0 0 0 27 0 
0 0 0 0 0 0 0 0 0 
0 0 0 0 0 0 0 0 0 
0 0 0 0 0 0 0 0 0 
0 0 0 0 98 0 0 0 0 
10 0 0 0 0 0 0 0 0 
0 0 0 0 0 0 4 58 0 
0 0 0 0 0 0 0 0 0 
0 0 0 0 0 0 0 73 0 
0 0 0 0 75 0 0 0 0 
0 0 0 0 0 0 13 0 0 
55 0 0 0 0 0 0 0 0 
32 0 0 0 0 0 0 0 0 
0 0 0 0 0 0 0 0 0 
0 0 0 0 0 435 0 0 0 
0 0 0 0 0 0 0 0 0 
0 0 0 325 325 0 0 0 0 
0 0 0 0 0 0 0 0 49 
0 0 0 0 0 0 0 0 0 
0 0 0 0 0 0 0 0 0 
0 0 0 0 0 0 0 0 0 
0 0 0 0 0 0 0 0 0 
0 0 47 0 0 0 0 89 0 
0 0 0 37 0 0 0 30 0 
0 0 0 0 0 0 0 0 0 
0 0 0 0 0 0 0 0 0 
0 0 0 0 0 0 0 0 0 
0 0 0 0 0 0 0 0 0 
0 0 0 0 0 0 0 0 0 
0 0 0 0 0 0 0 0 430 
0 0 0 0 0 0 0 0 0 
445 0 0 0 0 0 0 0 95 
0 0 0 0 0 90 0 0 0 
0 0 0 0 0 0 0 0 0 
0 0 0 0 0 0 0 0 0 
0 0 0 0 0 0 0 0 0 
0 0 448 0 0 452 0 0 0 
83 0 0 0 0 0 52 87 0 
0 0 0 14 0 0 0 0 0 
0 0 0 0 0 0 0 0 0 
0 0 0 0 0 0 0 0 0 
0 0 0 0 0 0 0 0 0 
0 0 0 0 0 9 0 0 0 
0 0 0 0 0 0 21 0 0 
0 0 0 0 0 0 99 0 0 
0 0 0 0 0 0 0 0 64 
0 0 429 0 0 0 0 0 0 
0 0 437 0 0 0 0 0 0 
0 0 26 0 0 0 0 0 0 
0 80 0 0 45 0 0 0 0 
0 0 0 0 0 221 0 0 0 
0 0 0 0 0 0 0 0 0 
0 0 0 0 0 0 0 0 0 
0 0 0 0 0 0 0 0 0 
0 0 0 0 1 0 0 0 0 
0 0 0 0 0 94 0 0 0 
0 0 0 0 0 0 0 0 93 
35 0 0 0 0 0 0 0 0 
0 0 0 0 0 0 0 0 0 
0 0 0 0 0 0 0 0 0 
0 15 0 0 0 0 0 0 0 
0 0 0 364 0 0 0 0 0 
0 0 0 0 0 0 0 0 0 
0 0 0 0 0 0 0 0 0 
0 0 0 0 0 0 0 39 0 
0 0 0 0 0 19 217 46 0 
0 36 0 0 0 0 0 0 0 
0 0 50 0 0 0 0 0 0 
0 17 0 0 0 0 0 0 0 
0 0 0 0 0 0 0 0 0 
0 0 0 0 0 0 0 0 0 
0 0 0 0 0 0 0 0 0 
0 0 0 0 0 0 18 0 0 
0 0 0 0 0 0 0 0 0 
0 0 0 0 0 0 0 0 0 
0 0 0 0 0 0 0 0 0 
20 0 0 0 0 0 0 0 0 
0 0 0 0 0 0 0 0 0 
0 0 0 0 0 0 0 0 0 
0 24 0 0 0 0 0 0 0 
0 0 0 0 0 451 0 0 0 
0 0 0 74 0 0 0 0 0 
0 0 0 0 211 0 0 0 0 
0 0 6 0 0 0 0 0 56 
0 0 0 0 0 0 0 0 0 
0 0 0 0 0 0 0 0 0 
0 0 0 0 0 0 0 0 0 
0 0 0 218 0 410 0 0 0 
0 0 0 0 0 0 0 0 0 
0 0 0 0 0 0 0 0 0 
0 0 0 0 16 0 0 0 0 
0 0 0 0 0 0 0 0 0 
0 0 0 0 0 0 0 0 0 
0 0 0 0 0 0 0 0 0 
0 0 0 0 0 0 0 0 0 
0 0 0 0 0 0 0 81 0 
0 0 0 0 0 0 0 442 0 
0 444 0 0 0 0 0 0 0 
0 0 433 0 0 0 0 0 0 
0 0 0 0 0 0 0 0 0 
0 0 0 0 0 0 0 0 0 
431 0 0 0 0 0 0 0 0 
0 0 0 0 0 0 0 0 0 
0 0 0 0 447 0 0 0 0 
0 0 0 0 0 0 0 0 0 
0 0 0 0 0 0 0 0 0 
0 0 0 0 0 0 0 0 0 
0 0 0 0 0 0 0 0 0 
0 0 0 0 0 0 0 0 0 
0 0 0 0 0 0 0 0 0 
0 0 0 0 0 0 0 0 0 
0 0 0 0 0 0 0 0 0 
0 0 0 0 434 434 0 0 0 
0 0 0 0 0 0 0 0 213 
0 0 0 0 0 0 0 0 0 
0 0 0 0 0 0 0 0 0 
219 0 0 0 0 0 0 0 0 
0 0 0 0 0 0 0 0 0 
0 0 0 0 0 0 0 0 0 
0 0 0 0 0 0 0 0 0 
0 405 0 0 0 0 0 0 0 
0 0 0 0 0 0 0 0 0 
0 0 0 0 0 0 449 0 0 
0 0 0 427 0 0 0 0 0 
0 0 0 0 0 0 0 0 0 
0 0 0 0 0 0 405 0 0 
0 0 0 0 0 0 0 0 0 
0 0 0 0 0 0 0 0 0 
0 0 0 0 0 0 0 0 0 
0 0 0 0 0 0 0 0 0 
0 0 0 422 0 0 0 0 0 
0 0 405 0 0 0 0 0 0 
0 0 0 0 0 0 0 0 0 
0 0 0 391 0 0 0 0 0 
0 0 0 0 0 0 0 0 0 
0 0 0 0 0 0 0 
cytokine 1 2500 double
0 0 0 0 0 0 0 0 0 
0 0 0 0 0 0 0 0 0 
0 0 0 0 0 0 0 0 0 
0 0 0 0 0 0 0 0 0 
0 0 0 0 0 0 0 0 0 
0 0 0 0 0 0 0 0 0 
0 0 0 0 0 0 0 0 0 
0 0 0 0 0 0 0 0 0 
0 0 0 0 0 0 0 0 0 
0 0 0 0 0 0 0 0 0 
0 0 0 0 0 0 0 0 0 
0 0 0 0 0 0 0 0 0 
0 0 0 0 0 0 0 0 0 
0 0 0 0 0 0 0 0 0 
0 0 0 0 0 0 0 0 0 
0 0 0 0 0 0 0 0 0 
0 0 0 0 0 0 0 0 0 
0 0 0 0 0 0 0 0 0 
0 0 0 0 0 0 0 0 0 
0 0 0 0 0 0 0 0 0 
0 0 0 0 0 0 0 0 0 
0 0 0 0 0 0 0 0 0 
0 0 0 0 0 0 0 0 0 
0 0 0 0 0 0 0 0 0 
0 0 0 0 0 0 0 0 0 
0 0 0 0 0 0 0 0 0 
0 0 0 0 0 0 0 0 0 
0 0 0 0 0 0 0 0 0 
0 0 0 0 0 0 0 0 0 
0 0 0 0 0 0 0 0 0 
0 0 0 0 0 0 0 0 0 
0 0 0 0 0 0 0 0 0 
0 0 0 0 0 0 0 0 0 
0 0 0 0 0 0 0 0 0 
0 0 0 0 0 0 0 0 0 
0 0 0 0 0 0 0 0 0 
0 0 0 0 0 0 0 0 0 
0 0 0 0 0 0 0 0 0 
0 0 0 0 0 0 0 0 0 
0 0 0 0 0 0 0 0 0 
0 0 0 0 0 0 0 0 0 
0 0 0 0 0 0 0 0 0 
0 0 0 0 0 0 0 0 0 
0 0 0 0 0 0 0 0 0 
0 0 0 0 0 0 0 0 0 
0 0 0 0 0 0 0 0 0 
0 0 0 0 0 0 0 0 0 
0 0 0 0 0 0 0 0 0 
0 0 0 0 0 0 0 0 0 
0 0 0 0 0 0 0 0 0 
0 0 0 0 0 0 0 0 0 
0 0 0 0 0 0 0 0 0 
0 0 0 0 0 0 0 0 0 
0 0 0 0 0 0 0 0 0 
0 0 0 0 0 0 0 0 0 
0 0 0 0 0 0 0 0 0 
0 0 0 0 0 0 0 0 0 
0 0 0 0 0 0 0 0 0 
0 0 0 0 0 0 0 0 0 
0 0 0 0 0 0 0 0 0 
0 0 0 0 0 0 0 0 0 
0 0 0 0 0 0 0 0 0 
0 0 0 0 0 0 0 0 0 
0 0 0 0 0 0 0 0 0 
0 0 0 0 0 0 0 0 0 
0 0 0 0 0 0 0 0 0 
0 0 0 0 0 0 0 0 0 
0 0 0 0 0 0 0 0 0 
0 0 0 0 0 0 0 0 0 
0 0 0 0 0 0 0 0 0 
0 0 0 0 0 0 0 0 0 
0 0 0 0 0 0 0 0 0 
0 0 0 0 0 0 0 0 0 
0 0 0 0 0 0 0 0 0 
0 0 0 0 0 0 0 0 0 
0 0 0 0 0 0 0 0 0 
0 0 0 0 0 0 0 0 0 
0 0 0 0 0 0 0 0 0 
0 0 0 0 0 0 0 0 0 
0 0 0 0 0 0 0 0 0 
0 0 0 0 0 0 0 0 0 
0 0 0 0 0 0 0 0 0 
0 0 0 0 0 0 0 0 0 
0 0 0 0 0 0 0 0 0 
0 0 0 0 0 0 0 0 0 
0 0 0 0 0 0 0 0 0 
0 0 0 0 0 0 0 0 0 
0 0 0 0 0 0 0 0 0 
0 0 0 0 0 0 0 0 0 
0 0 0 0 0 0 0 0 0 
0 0 0 0 0 0 0 0 0 
0 0 0 0 0 0 0 0 0 
0 0 0 0 0 0 0 0 0 
0 0 0 0 0 0 0 0 0 
0 0 0 0 0 0 0 0 0 
0 0 0 0 0 0 0 0 0 
0 0 0 0 0 0 0 0 0 
0 0 0 0 0 0 0 0 0 
0 0 0 0 0 0 0 0 0 
0 0 0 0 0 0 0 0 0 
0 0 0 0 0 0 0 0 0 
0 0 0 0 0 0 0 0 0 
0 0 0 0 0 0 0 0 0 
0 0 0 0 0 0 0 0 0 
0 0 0 0 0 0 0 0 0 
0 0 0 0 0 0 0 0 0 
0 0 0 0 0 0 0 0 0 
0 0 0 0 0 0 0 0 0 
0 0 0 0 0 0 0 0 0 
0 0 0 0 0 0 0 0 0 
0 0 0 0 0 0 0 0 0 
0 0 0 0 0 0 0 0 0 
0 0 0 0 0 0 0 0 0 
0 0 0 0 0 0 0 0 0 
0 0 0 0 0 0 0 0 0 
0 0 0 0 0 0 0 0 0 
0 0 0 0 0 0 0 0 0 
0 0 0 0 0 0 0 0 0 
0 0 0 0 0 0 0 0 0 
0 0 0 0 0 0 0 0 0 
0 0 0 0 0 0 0 0 0 
0 0 0 0 0 0 0 0 0 
0 0 0 0 0 0 0 0 0 
0 0 0 0 0 0 0 0 0 
0 0 0 0 0 0 0 0 0 
0 0 0 0 0 0 0 0 0 
0 0 0 0 0 0 0 0 0 
0 0 0 0 0 0 0 0 0 
0 0 0 0 0 0 0 0 0 
0 0 0 0 0 0 0 0 0 
0 0 0 0 0 0 0 0 0 
0 0 0 0 0 0 0 0 0 
0 0 0 0 0 0 0 0 0 
0 0 0 0 0 0 0 0 0 
0 0 0 0 0 0 0 0 0 
0 0 0 0 0 0 0 0 0 
0 0 0 0 0 0 0 0 0 
0 0 0 0 0 0 0 0 0 
0 0 0 0 0 0 0 0 0 
0 0 0 0 0 0 0 0 0 
0 0 0 0 0 0 0 0 0 
0 0 0 0 0 0 0 0 0 
0 0 0 0 0 0 0 0 0 
0 0 0 0 0 0 0 0 0 
0 0 0 0 0 0 0 0 0 
0 0 0 0 0 0 0 0 0 
0 0 0 0 0 0 0 0 0 
0 0 0 0 0 0 0 0 0 
0 0 0 0 0 0 0 0 0 
0 0 0 0 0 0 0 0 0 
0 0 0 0 0 0 0 0 0 
0 0 0 0 0 0 0 0 0 
0 0 0 0 0 0 0 0 0 
0 0 0 0 0 0 0 0 0 
0 0 0 0 0 0 0 0 0 
0 0 0 0 0 0 0 0 0 
0 0 0 0 0 0 0 0 0 
0 0 0 0 0 0 0 0 0 
0 0 0 0 0 0 0 0 0 
0 0 0 0 0 0 0 0 0 
0 0 0 0 0 0 0 0 0 
0 0 0 0 0 0 0 0 0 
0 0 0 0 0 0 0 0 0 
0 0 0 0 0 0 0 0 0 
0 0 0 0 0 0 0 0 0 
0 0 0 0 0 0 0 0 0 
0 0 0 0 0 0 0 0 0 
0 0 0 0 0 0 0 0 0 
0 0 0 0 0 0 0 0 0 
0 0 0 0 0 0 0 0 0 
0 0 0 0 0 0 0 0 0 
0 0 0 0 0 0 0 0 0 
0 0 0 0 0 0 0 0 0 
0 0 0 0 0 0 0 0 0 
0 0 0 0 0 0 0 0 0 
0 0 0 0 0 0 0 0 0 
0 0 0 0 0 0 0 0 0 
0 0 0 0 0 0 0 0 0 
0 0 0 0 0 0 0 0 0 
0 0 0 0 0 0 0 0 0 
0 0 0 0 0 0 0 0 0 
0 0 0 0 0 0 0 0 0 
0 0 0 0 0 0 0 0 0 
0 0 0 0 0 0 0 0 0 
0 0 0 0 0 0 0 0 0 
0 0 0 0 0 0 0 0 0 
0 0 0 0 0 0 0 0 0 
0 0 0 0 0 0 0 0 0 
0 0 0 0 0 0 0 0 0 
0 0 0 0 0 0 0 0 0 
0 0 0 0 0 0 0 0 0 
0 0 0 0 0 0 0 0 0 
0 0 0 0 0 0 0 0 0 
0 0 0 0 0 0 0 0 0 
0 0 0 0 0 0 0 0 0 
0 0 0 0 0 0 0 0 0 
0 0 0 0 0 0 0 0 0 
0 0 0 0 0 0 0 0 0 
0 0 0 0 0 0 0 0 0 
0 0 0 0 0 0 0 0 0 
0 0 0 0 0 0 0 0 0 
0 0 0 0 0 0 0 0 0 
0 0 0 0 0 0 0 0 0 
0 0 0 0 0 0 0 0 0 
0 0 0 0 0 0 0 0 0 
0 0 0 0 0 0 0 0 0 
0 0 0 0 0 0 0 0 0 
0 0 0 0 0 0 0 0 0 
0 0 0 0 0 0 0 0 0 
0 0 0 0 0 0 0 0 0 
0 0 0 0 0 0 0 0 0 
0 0 0 0 0 0 0 0 0 
0 0 0 0 0 0 0 0 0 
0 0 0 0 0 0 0 0 0 
0 0 0 0 0 0 0 0 0 
0 0 0 0 0 0 0 0 0 
0 0 0 0 0 0 0 0 0 
0 0 0 0 0 0 0 0 0 
0 0 0 0 0 0 0 0 0 
0 0 0 0 0 0 0 0 0 
0 0 0 0 0 0 0 0 0 
0 0 0 0 0 0 0 0 0 
0 0 0 0 0 0 0 0 0 
0 0 0 0 0 0 0 0 0 
0 0 0 0 0 0 0 0 0 
0 0 0 0 0 0 0 0 0 
0 0 0 0 0 0 0 0 0 
0 0 0 0 0 0 0 0 0 
0 0 0 0 0 0 0 0 0 
0 0 0 0 0 0 0 0 0 
0 0 0 0 0 0 0 0 0 
0 0 0 0 0 0 0 0 0 
0 0 0 0 0 0 0 0 0 
0 0 0 0 0 0 0 0 0 
0 0 0 0 0 0 0 0 0 
0 0 0 0 0 0 0 0 0 
0 0 0 0 0 0 0 0 0 
0 0 0 0 0 0 0 0 0 
0 0 0 0 0 0 0 0 0 
0 0 0 0 0 0 0 0 0 
0 0 0 0 0 0 0 0 0 
0 0 0 0 0 0 0 0 0 
0 0 0 0 0 0 0 0 0 
0 0 0 0 0 0 0 0 0 
0 0 0 0 0 0 0 0 0 
0 0 0 0 0 0 0 0 0 
0 0 0 0 0 0 0 0 0 
0 0 0 0 0 0 0 0 0 
0 0 0 0 0 0 0 0 0 
0 0 0 0 0 0 0 0 0 
0 0 0 0 0 0 0 0 0 
0 0 0 0 0 0 0 0 0 
0 0 0 0 0 0 0 0 0 
0 0 0 0 0 0 0 0 0 
0 0 0 0 0 0 0 0 0 
0 0 0 0 0 0 0 0 0 
0 0 0 0 0 0 0 0 0 
0 0 0 0 0 0 0 0 0 
0 0 0 0 0 0 0 0 0 
0 0 0 0 0 0 0 0 0 
0 0 0 0 0 0 0 0 0 
0 0 0 0 0 0 0 0 0 
0 0 0 0 0 0 0 0 0 
0 0 0 0 0 0 0 0 0 
0 0 0 0 0 0 0 0 0 
0 0 0 0 0 0 0 0 0 
0 0 0 0 0 0 0 0 0 
0 0 0 0 0 0 0 0 0 
0 0 0 0 0 0 0 0 0 
0 0 0 0 0 0 0 0 0 
0 0 0 0 0 0 0 0 0 
0 0 0 0 0 0 0 0 0 
0 0 0 0 0 0 0 0 0 
0 0 0 0 0 0 0 0 0 
0 0 0 0 0 0 0 0 0 
0 0 0 0 0 0 0 0 0 
0 0 0 0 0 0 0 0 0 
0 0 0 0 0 0 0 
il1 1 2500 double
1.2046197346e-17 4.8445165328e-16 1.6569399322e-14 4.8110284203e-13 1.1471897217e-11 2.1463465727e-10 2.5390032299e-09 1.5401923292e-08 3.6573863937e-09 
5.7087412575e-10 1.1925076482e-09 1.8310603034e-10 2.9478565422e-11 3.3737534988e-10 1.061565591e-08 2.823708769e-07 2.5206157162e-08 1.0464435007e-07 
1.8029385984e-08 1.5668197406e-08 2.3643191849e-09 1.8964828319e-10 1.8342063979e-11 1.2336161259e-10 9.6605723421e-10 3.1863878203e-10 2.4366244578e-09 
1.5565323253e-08 2.3782722458e-09 3.6680075644e-10 2.3397646043e-09 1.5757954941e-08 1.8132887192e-08 1.0910801507e-07 1.5871684411e-08 1.1818850343e-09 
1.4066241227e-10 8.0567169602e-10 3.9709302513e-10 3.2797378147e-09 1.495035562e-08 2.2157287116e-09 1.8646306721e-10 2.7782823264e-10 3.3023561663e-09 
3.093329326e-08 1.1594438831e-07 1.6140250025e-08 1.1517991005e-09 5.7686334876e-11 7.5274289393e-17 3.0427526225e-15 1.0432515176e-13 3.0189848017e-12 
7.084748066e-11 1.2657196402e-09 1.5343911031e-08 9.5914288067e-08 2.8983212275e-08 5.620284238e-09 1.5033998935e-08 2.2761319496e-09 3.3515099029e-10 
2.0793220479e-09 1.4049000185e-08 1.1538068279e-08 2.7848821027e-09 1.5792480212e-08 1.5700861056e-08 8.5337454436e-08 1.3412496891e-08 1.0828324903e-09 
1.7626257398e-10 1.8301530291e-09 1.4509076607e-08 3.2139666484e-09 1.6545879333e-08 1.0391784855e-07 1.5417111143e-08 2.2289032842e-09 1.3603818516e-08 
8.8072411586e-08 1.5721633773e-08 1.5914967122e-08 2.2458934712e-09 2.5065566289e-10 1.5841997714e-09 1.5728527814e-08 4.684235666e-09 2.9023500048e-08 
9.5729802752e-08 1.3937815346e-08 1.2528535986e-09 2.1167092523e-09 1.4267416582e-08 1.0042862186e-07 2.9451445727e-08 3.1794691324e-09 2.0530412093e-10 
9.7768650814e-12 5.3122237079e-17 2.2828687776e-15 8.4741167263e-14 2.6928112518e-12 7.0256585272e-11 1.4119757585e-09 1.9521554151e-08 1.4298477424e-07 
1.1523098209e-07 3.1135723333e-08 1.1365623465e-07 1.6152966964e-08 2.2650075149e-09 1.3772045726e-08 9.2113076278e-08 1.3886563011e-08 1.2405535488e-09 
1.5192394009e-09 3.5594041048e-09 1.4688437133e-08 2.3270676497e-09 2.802043042e-10 9.4122587502e-10 1.4523927838e-08 1.1662746857e-07 1.872087374e-08 
3.1031962777e-08 1.3686063483e-07 1.6759191368e-08 1.2940301053e-09 2.3265829263e-09 1.459496346e-08 2.4314168456e-09 1.2576705233e-09 2.0839316384e-10 
9.2839569366e-10 1.6626151123e-08 1.6682230353e-07 3.2887534474e-08 1.2151907924e-07 2.9976344962e-08 3.3435370028e-09 2.3493487156e-09 1.3812908151e-08 
4.1307255394e-09 1.5266644837e-08 1.6704758465e-08 1.3570922164e-09 6.3788474503e-11 2.5218206429e-12 1.585362583e-16 5.1439959368e-15 1.4856693621e-13 
3.7639262367e-12 7.9621052806e-11 1.3205210259e-09 1.5538525133e-08 1.0501506154e-07 3.2198843769e-07 3.7623433258e-08 4.039671353e-07 2.6451139945e-08 
1.6374717138e-09 2.1327046795e-09 1.3711625613e-08 2.0782509047e-09 3.5581562696e-10 2.407862798e-09 1.5684898713e-08 1.7881578884e-08 2.7670084002e-09 
1.2515353198e-09 4.0828443404e-10 3.8279561743e-09 3.1993117489e-08 3.0746782897e-08 8.9263366476e-08 2.9097618537e-08 3.183623587e-09 1.4340071353e-09 
2.4513902019e-09 1.4596273523e-08 2.2829829138e-09 2.4613369676e-10 2.1317343724e-10 2.1093726765e-09 1.518001902e-08 1.0485116064e-07 3.0869465206e-08 
1.1207838213e-07 1.6979026185e-08 2.5268909187e-09 1.4820983552e-08 9.0842284806e-08 1.4314603725e-08 1.5717658286e-08 1.8882104769e-07 1.467311872e-08 
6.5225463919e-10 2.7383571105e-11 1.9596276641e-15 4.4700828867e-14 8.9172744709e-13 1.5017828994e-11 1.8667030421e-10 1.2811580685e-09 2.6449198387e-09 
1.650664494e-08 2.6538575781e-08 1.8714040095e-08 1.1709662573e-07 1.8135404289e-08 1.2282425077e-09 2.1975080089e-10 1.0522073213e-09 2.7142232906e-10 
1.1701297709e-09 1.4470398213e-08 9.8077002519e-08 1.1618512019e-07 1.8845769389e-08 1.5029806733e-08 3.0853364308e-09 1.578301223e-08 1.3389046671e-07 
1.0734527933e-07 2.8056909684e-08 4.3253560733e-09 2.5301063467e-09 1.4465090459e-08 1.5666758557e-08 8.8093685235e-08 1.3612983629e-08 1.2129135474e-09 
2.0188308802e-09 1.4268399795e-08 4.132177267e-09 1.4735976883e-08 5.3676134648e-09 1.5559898259e-08 2.4317874381e-09 2.5802846526e-09 1.6814746928e-08 
1.5956031163e-08 2.3295321228e-09 1.5429330036e-09 1.6584939644e-08 1.7605774616e-08 2.0665411604e-09 2.2701038271e-10 3.9812229034e-14 7.1737369734e-13 
1.1722691394e-11 1.7581021361e-10 2.1428743224e-09 1.3374508612e-08 3.2872873312e-09 1.5579169954e-08 1.0869077727e-07 1.648690251e-08 1.7831780497e-08 
3.5858170122e-07 2.0620511965e-09 3.4775730906e-11 2.0397662726e-10 1.0394638483e-09 3.9368505678e-10 3.3899103524e-09 2.8907289007e-08 1.0456974309e-07 
2.9494977127e-08 9.3343530239e-08 1.3893687978e-08 2.9861486617e-09 1.6632561994e-08 1.5605163384e-08 3.325706599e-09 1.4511687407e-09 1.3421020739e-08 
8.5222467305e-08 1.5683687238e-08 1.5864667802e-08 3.4754044087e-09 1.345760392e-09 1.4123473058e-08 1.0306735021e-07 1.4417645744e-08 4.1279135665e-09 
1.4927774572e-08 1.5594025626e-08 2.2607593575e-09 1.5842990919e-08 1.0435979192e-07 1.790931492e-08 1.8677370761e-09 3.9774255001e-09 3.1524098887e-08 
4.5198908083e-07 1.6804110103e-08 2.4058872672e-09 7.348544516e-13 1.0421290567e-11 1.1148321849e-10 1.0882521551e-09 1.3318324221e-08 8.3703774578e-08 
1.3456584291e-08 3.0833473552e-09 1.4844019347e-08 2.1059820554e-09 1.2314668174e-09 2.0613923901e-09 3.3676821748e-11 1.5116005669e-10 2.0283794644e-09 
1.3938350918e-08 2.0508215126e-09 5.085599164e-10 3.3692753032e-09 1.4908202672e-08 4.3459125187e-09 1.388923998e-08 2.0806150136e-09 2.8287594489e-10 
1.0645990756e-09 1.1687139034e-09 2.3604659893e-10 1.9667383e-10 2.1415811347e-09 1.3587973413e-08 4.6362442774e-09 1.6559415172e-08 1.559056706e-08 
2.4852973013e-09 2.143822897e-09 1.4160613127e-08 2.9964861703e-09 1.439493591e-08 1.0764398439e-07 2.3368973245e-07 1.4795034531e-08 1.6056272756e-08 
1.0083605417e-07 2.9210923458e-08 6.3103891002e-09 2.8656732098e-08 1.1941889966e-07 3.1221883745e-08 5.4568403129e-09 1.6654858825e-08 1.254994459e-11 
1.5584789015e-10 1.0430297737e-09 3.4212996325e-10 2.2175468128e-09 1.338119926e-08 2.1996751087e-09 1.3504338758e-09 1.4704299112e-08 1.1802684385e-09 
1.0389959032e-10 1.8367498494e-11 5.1645875077e-11 1.0283232044e-09 1.403800276e-08 9.7660610265e-08 1.4039540197e-08 1.0523519833e-09 2.8724003731e-10 
1.1402091493e-09 3.3474142902e-10 1.0539122908e-09 1.5939632947e-10 1.8116196043e-11 4.8988910151e-11 5.9865189195e-11 1.2055912692e-11 1.7929458265e-11 
2.3627960699e-10 2.2260031596e-09 1.4441360108e-08 9.4388845184e-08 9.5561105695e-08 1.4380555413e-08 1.2897140023e-09 1.0629858105e-09 3.5835989731e-10 
2.2264488031e-09 1.6570046668e-08 2.8302766353e-08 3.1356195418e-09 3.5510197005e-09 2.810534383e-08 9.0780396533e-08 2.785244213e-08 9.956615088e-08 
2.8552578968e-08 5.2766475633e-09 1.6768705535e-08 1.0874145318e-07 1.6337471653e-10 2.0503427844e-09 1.379059178e-08 2.2908970276e-09 1.5650390983e-09 
2.3231638835e-09 8.7597090692e-10 1.3772704754e-08 1.8534335311e-07 1.3744720029e-08 5.2486964774e-10 1.4495155076e-11 1.5504769343e-11 3.0199040491e-10 
4.052478797e-09 2.7714188278e-08 4.0525542921e-09 3.0316166244e-10 2.7058003407e-11 6.0080350417e-11 1.7549533007e-11 5.4090169843e-11 9.0664802055e-12 
1.053252971e-11 6.0714967776e-11 1.2067825905e-11 1.3079160151e-12 1.3238022874e-12 2.0108397586e-11 2.491841733e-10 2.3508026636e-09 1.5334757464e-08 
1.550775508e-08 3.1811806522e-09 3.0863575584e-10 2.3495094759e-10 1.1365181019e-09 1.3401511012e-09 1.4945658933e-08 9.7151719558e-08 1.3951508393e-08 
1.5338568193e-09 5.4077937683e-09 2.7545363324e-08 7.2528698603e-09 1.4487735456e-08 3.2401346051e-09 9.0750154058e-09 1.840005126e-08 1.228011115e-07 
1.085513901e-09 1.3790388387e-08 9.3906329823e-08 1.7038537692e-08 1.6848998641e-08 1.5818262256e-08 2.3111634828e-09 1.2169476538e-09 1.3750776517e-08 
1.0434161313e-09 4.0726987754e-11 3.0699331965e-12 5.1968575276e-11 1.0361160818e-09 1.3981043878e-08 9.6139629591e-08 1.3981045655e-08 1.0361527192e-09 
5.235285816e-11 4.3479473494e-12 7.9410561243e-13 2.9181429408e-12 1.4852190658e-11 1.7545526143e-10 1.0801579631e-09 1.7732186552e-10 1.4896471209e-11 