# vtk DataFile Version 5.1
vtk output
ASCII
DATASET STRUCTURED_POINTS
DIMENSIONS 100 100 1
SPACING 1 1 1
ORIGIN 0 0 0
POINT_DATA 10000
FIELD FieldData 6
feature_1 1 10000 float
0 0 0 0 0 0 0 0 0 
0 0 0 0 0 0 0 0 0 
0 0 0 0 0 0 0 0 0 
0 0 0 0 0 0 0 0 0 
0 0 0 0 0 0 0 0 0 
0 0 0 0 0 0 0 0 0 
0 0 0 0 0 0 0 0 0 
0 0 0 0 0 0 0 0 0 
0 0 0 0 0 0 0 0 0 
0 0 0 0 0 0 0 0 0 
0 0 0 0 0 0 0 0 0 
0 0 0 0 0 0 0 0 0 
0 0 0 0 0 0 0 0 0 
0 0 0 0 0 0 0 0 0 
0 0 0 0 0 0 0 0 0 
0 0 0 0 0 0 0 0 0 
0 0 0 0 0 0 0 0 0 
0 0 0 0 0 0 0 0 0 
0 0 0 0 0 0 0 0 0 
0 0 0 0 0 8.68312e-11 0 0 0 
0 0 0 0 0 0 0 0 0 
0 0 0 0 0 0 0 0 0 
0 0 0 0 0 0 0 0 0 
0 0 0 0 0 0 0 0 0 
0 0 0 0 0 0 0 0 0 
0 0 0 0 0 0 0 0 0 
0 0 0 0 0 0 0 0 0 
0 0 0 0 0 0 0 0 0 
0 0 0 0 0 0 0 0 0 
0 0 0 0 0 0 0 0 0 
0 0 0 0 0 0 0 0 0 
0 0 0 0 0 0 0 0 0 
0 0 0 0 0 0 0 0 0 
0 0 0 0 0 0 0 0 0 
0 0 0 0 0 0 0 0 0 
0 0 0 0 0 0 0 0 0 
0 0 0 0 0 0 0 0 0 
0 0 0 0 0 0 0 0 0 
0 0 0 0 0 0 0 0 0 
0 0 0 0 0 0 0 0 0 
0 0 0 0 0 0 0 0 0 
0 0 0 0 0 0 0 0 0 
0 0 0 0 0 0 0 0 0 
0 0 0 0 0 0 0 0 0 
0 0 0 0 0 0 0 0 0 
0 0 0 0 0 0 0 0 0 
0 0 0 0 0 0 0 0 0 
0 0 0 0 0 0 0 0 0 
0 0 0 0 0 0 0 0 0 
0 0 0 0 0 0 0 0 0 
0 0 0 0 0 0 0 0 0 
0 0 0 0 0 0 0 0 0 
0 0 0 0 0 0 0 0 0 
0 0 0 0 0 0 0 0 0 
0 0 0 0 0 0 0 0 0 
0 0 0 0 0 0 0 0 0 
0 0 0 0 0 0 0 0 0 
0 0 0 0 0 0 0 0 0 
0 0 0 0 0 0 0 0 0 
0 0 0 0 0 0 0 0 0 
0 0 0 0 0 0 0 1.53149e-10 0 
0 0 0 0 0 0 0 0 0 
0 1.04001e-10 0 0 0 0 0 0 0 
0 0 0 0 0 0 0 0 0 
0 0 0 0 0 0 0 0 0 
0 0 0 0 0 0 0 0 0 
0 0 0 0 0 0 0 0 0 
0 0 0 0 0 0 0 0 0 
0 0 0 0 0 0 0 0 0 
0 0 0 0 0 0 0 0 0 
0 0 0 0 0 0 0 0 0 
0 0 0 0 0 0 0 0 0 
0 0 0 0 0 0 0 0 0 
0 0 0 0 0 0 0 0 0 
0 0 0 0 0 0 0 0 0 
0 0 0 0 0 0 0 0 0 
0 0 0 0 0 0 0 0 0 
0 0 0 0 0 0 0 0 0 
0 0 0 0 0 0 0 0 0 
0 0 0 0 0 0 0 0 0 
0 0 0 0 0 0 0 0 0 
0 0 0 0 0 0 0 0 0 
0 0 0 0 0 0 0 0 0 
0 0 0 0 0 0 0 0 0 
0 0 0 0 0 0 0 0 0 
0 0 0 0 0 0 0 0 0 
0 0 0 0 0 0 0 0 0 
0 0 0 0 0 0 0 0 0 
0 0 0 0 0 0 0 0 0 
0 0 0 0 0 0 0 0 0 
0 0 0 0 0 0 0 0 0 
0 0 0 0 0 0 0 0 0 
0 0 0 0 0 0 0 0 0 
0 0 0 0 0 0 0 0 0 
0 0 0 0 0 0 0 0 0 
0 0 0 0 0 0 0 0 0 
0 0 0 0 0 0 0 0 0 
0 0 0 0 0 0 0 0 0 
0 0 0 0 0 0 0 0 0 
0 0 0 0 0 0 0 0 0 
0 0 0 0 0 0 0 0 0 
0 0 0 0 0 0 0 0 0 
0 0 0 0 0 0 0 0 0 
0 0 0 0 0 0 0 0 0 
0 0 0 0 0 0 0 0 0 
0 0 0 0 0 0 0 0 0 
0 0 0 0 0 0 0 0 0 
0 0 0 0 0 0 0 0 0 
0 0 0 0 0 0 0 0 0 
0 0 0 0 0 0 0 0 0 
0 0 0 0 0 0 0 0 0 
0 0 0 0 0 0 0 0 0 
0 0 0 4.70655e-11 0 0 0 0 0 
0 0 0 0 0 0 0 0 0 
0 0 0 0 0 0 0 0 0 
0 0 0 0 0 0 0 0 0 
0 1.72573e-09 0 0 0 0 0 0 0 
0 0 0 0 0 0 0 2.21357e-09 4.33903e-10 
0 0 0 0 0 0 0 0 0 
0 0 0 0 0 0 0 0 0 
0 0 0 0 0 0 0 0 0 
0 0 0 0 0 0 0 0 0 
0 0 0 0 0 0 0 0 0 
0 0 0 0 0 0 0 0 0 
0 0 0 0 0 0 0 0 0 
0 0 0 0 0 0 0 0 0 
0 0 0 0 0 0 0 0 9.46014e-10 
0 0 0 0 0 0 0 0 0 
0 0 0 0 0 0 0 0 0 
0 0 0 0 0 0 0 0 0 
0 0 0 0 0 0 0 0 0 
0 0 0 0 0 0 0 0 0 
0 0 0 0 0 0 0 0 0 
0 0 0 0 0 0 0 0 0 
0 0 0 0 0 0 0 0 0 
0 0 0 0 0 0 0 0 0 
0 0 0 0 0 0 0 0 0 
0 0 0 0 0 0 0 0 0 
0 0 0 7.92538e-07 5.82926e-09 2.64872e-09 0 1.10741e-09 0 
0 0 0 0 0 0 1.97367e-09 1.16332e-09 6.44988e-07 
1.72006e-09 0 0 0 0 0 0 0 0 
0 0 0 0 0 0 0 0 0 
0 0 0 0 0 0 0 0 0 
0 0 0 0 0 0 0 0 0 
0 0 0 0 0 0 0 0 0 
0 0 0 0 0 0 0 0 0 
0 0 0 0 0 0 0 0 0 
0 0 0 0 4.72787e-10 0 0 0 0 
0 0 0 1.52779e-09 0 0 0 0 0 
2.94372e-09 0 0 8.33206e-07 0 6.54682e-09 0 0 0 
6.3492e-10 0 0 0 0 0 0 0 0 
0 0 1.72566e-09 1.3151e-09 7.88934e-10 0 0 0 0 
0 0 0 0 0 0 0 0 0 
0 1.74583e-09 0 0 0 0 0 0 0 
0 0 0 0 0 0 0 0 0 
0 0 0 0 0 0 0 0 0 
0 0 0 0 0 0 0 0 0 
0 0 0 0 0 0 0 0 0 
0 0 0 0 4.40588e-09 6.47039e-07 0 0 0 
0 0 0 1.84781e-09 0 7.57819e-09 0 0 1.08253e-09 
0 0 0 0 0 0 0 0 1.43666e-09 
0 0 0 0 0 0 0 0 0 
0 0 0 0 0 0 0 0 0 
0 0 0 0 0 0 1.00349e-09 0 0 
6.46358e-07 1.37769e-09 0 9.71674e-10 0 0 0 0 0 
0 0 0 0 0 0 0 0 0 
0 0 0 0 0 0 0 0 0 
0 0 0 0 0 0 0 0 0 
0 0 0 0 0 0 0 0 0 
0 0 0 0 0 0 0 0 0 
0 0 0 0 1.09945e-09 3.85659e-09 0 4.27052e-09 2.65864e-09 
0 0 0 0 0 0 7.98632e-07 0 0 
1.03103e-09 0 0 0 0 0 0 0 0 
0 0 1.54691e-09 0 0 0 0 0 0 
0 0 0 0 8.06877e-10 0 0 0 0 
0 3.28045e-11 0 0 3.95765e-10 0 0 0 0 
0 0 0 0 0 0 0 0 0 
0 0 0 0 0 0 0 0 0 
0 0 0 0 0 0 0 0 0 
0 0 0 0 0 0 0 0 0 
0 0 0 0 0 0 1.91844e-09 0 0 
8.10955e-10 0 0 3.1087e-10 0 0 2.41865e-09 0 0 
0 0 9.67292e-10 0 0 7.41709e-07 1.20975e-08 0 0 
0 0 6.89613e-07 0 1.00075e-09 9.41724e-10 0 0 0 
0 0 0 0 1.514e-09 0 1.83681e-09 0 1.35799e-09 
2.43099e-11 1.94844e-09 0 0 0 0 0 0 0 
0 0 0 4.77086e-10 0 0 0 0 0 
0 0 0 0 0 0 0 0 0 
0 0 0 0 0 0 0 0 0 
0 0 0 0 0 0 0 0 0 
0 0 0 0 0 0 0 0 0 
0 0 0 0 0 0 1.26025e-09 5.16587e-09 0 
2.09912e-09 0 0 0 0 0 0 0 2.09693e-09 
1.74079e-09 0 0 0 1.32051e-09 1.6762e-09 0 0 2.16272e-09 
0 0 0 0 0 0 5.50259e-10 0 0 
0 0 0 0 0 0 0 7.19024e-07 0 
7.19228e-07 7.77089e-09 0 0 0 0 0 0 6.675e-07 
0 0 0 0 0 0 0 0 0 
0 0 0 0 0 0 0 0 0 
0 0 0 0 0 0 0 0 0 
0 0 0 0 0 0 0 0 0 
0 0 0 0 0 0 0 0 0 
0 0 0 0 0 3.53121e-09 0 1.41331e-09 0 
0 0 0 0 0 0 0 0 1.7004e-09 
0 0 0 0 0 0 0 0 0 
0 0 0 0 0 0 1.65351e-09 0 0 
0 0 0 0 0 0 0 0 0 
0 0 2.25279e-09 0 0 0 0 9.42923e-10 0 
0 0 2.12624e-09 2.025e-09 1.37873e-09 0 0 0 0 
0 0 0 0 0 0 0 0 0 
0 0 0 0 0 0 0 0 0 
0 0 0 0 0 0 0 0 0 
0 0 0 0 0 0 0 0 0 
0 0 0 0 0 0 0 1.82082e-09 1.77115e-09 
3.70496e-09 6.49569e-07 0 0 0 0 0 0 0 
0 0 0 0 6.50054e-07 0 0 0 0 
0 8.98476e-07 9.15388e-07 0 1.8488e-09 7.20312e-07 0 0 0 
0 0 0 0 0 0 0 1.95633e-09 0 
0 1.42625e-09 0 0 0 1.44858e-09 0 1.62606e-09 0 
1.76065e-09 0 8.97508e-10 1.33987e-09 1.24869e-09 0 0 0 0 
0 0 0 0 0 0 0 0 0 
0 0 0 0 0 0 0 0 0 
0 0 0 0 0 0 0 0 0 
0 0 0 0 0 0 0 0 0 
0 0 0 6.11876e-10 1.83056e-09 4.18776e-09 6.47171e-07 5.23591e-09 0 
0 2.67851e-09 3.53964e-09 0 0 0 0 0 0 
0 0 0 0 0 0 0 0 1.47509e-09 
0 0 0 0 0 0 1.80005e-09 0 1.26809e-09 
0 0 1.03507e-09 0 0 0 0 0 0 
0 0 0 0 0 0 8.03277e-11 0 0 
0 6.68578e-07 8.81685e-10 0 0 0 0 0 0 
0 0 0 0 0 0 0 1.69817e-09 0 
0 0 0 0 0 0 0 0 0 
0 0 0 0 0 0 0 0 0 
0 0 0 0 0 0 0 0 0 
0 0 0 0 0 1.13169e-09 0 0 5.19367e-09 
2.07928e-09 0 1.52613e-09 0 1.53121e-09 0 0 0 0 
0 6.24833e-10 0 0 0 0 0 0 0 
1.30029e-09 0 0 0 0 0 0 2.81025e-09 0 
1.47186e-09 0 0 0 0 0 0 0 0 
0 0 6.85518e-10 0 0 1.78094e-09 1.3996e-10 0 0 
0 0 0 0 6.95848e-10 0 0 0 1.90826e-09 
0 0 0 0 0 0 1.16075e-09 4.92147e-09 0 
0 0 0 0 0 0 0 0 0 
0 0 0 0 0 0 0 0 0 
0 0 0 0 0 0 0 0 0 
0 0 0 0 0 0 0 0 0 
0 0 0 0 0 0 0 0 0 
0 0 0 1.16031e-10 0 0 0 0 0 
0 0 0 0 0 2.02467e-09 0 0 2.35396e-10 
0 4.46435e-10 0 0 0 0 0 0 0 
0 0 0 0 0 0 0 4.31263e-09 0 
0 0 0 0 0 1.6624e-09 0 0 0 
0 0 0 0 0 0 0 0 0 
7.18984e-07 0 1.77737e-09 1.47893e-09 0 0 0 0 0 
0 0 0 0 0 0 0 0 0 
0 0 0 0 0 0 0 0 0 
0 0 0 0 0 1.46002e-09 0 0 0 
0 0 0 0 0 0 0 1.58949e-09 0 
0 0 7.09062e-10 2.18568e-10 0 0 8.78521e-10 0 0 
2.55568e-10 0 0 0 1.69968e-09 0 0 8.76585e-07 8.73858e-07 
0 0 0 0 0 0 0 0 6.25062e-10 
0 0 0 0 0 0 0 0 6.46537e-07 
0 0 0 2.40711e-10 0 0 0 0 0 
0 6.54815e-07 0 0 0 0 0 0 2.91008e-09 
5.91164e-09 0 0 0 0 0 0 0 0 
0 0 0 0 0 0 0 0 0 
0 0 0 0 0 0 0 0 0 
6.1754e-10 0 0 0 0 0 0 8.92976e-10 0 
0 0 0 0 0 0 0 0 0 
9.86746e-10 0 0 0 0 8.88089e-10 0 0 0 
0 0 0 0 0 1.8452e-09 0 0 3.3383e-09 
0 0 2.01809e-09 1.13546e-10 0 0 6.46051e-07 1.92743e-09 0 
9.29441e-10 0 0 0 0 0 0 2.81466e-09 0 
0 0 0 0 0 0 4.59571e-09 0 0 
0 0 1.28005e-09 2.57142e-10 3.90075e-09 0 1.00191e-09 0 1.20906e-09 
1.75166e-09 0 7.25769e-07 0 0 0 0 0 0 
0 0 0 0 0 0 0 0 0 
0 0 0 0 0 0 0 0 0 
0 0 0 9.83347e-10 9.16985e-10 3.18862e-10 0 0 0 
0 0 0 0 0 0 0 0 0 
0 0 3.05068e-09 0 7.89681e-10 0 8.91504e-10 1.80558e-10 0 
0 0 0 0 0 0 0 2.0283e-09 0 
4.55524e-09 0 0 0 2.28879e-09 0 0 2.5911e-09 8.17675e-10 
0 0 1.28995e-09 0 0 0 0 6.88911e-10 0 
0 0 1.48285e-09 9.30555e-10 0 0 8.83495e-09 6.54727e-07 4.61252e-09 
0 0 0 0 0 0 0 3.43617e-10 0 
0 0 3.72572e-09 0 0 4.10866e-10 0 0 0 
0 0 0 0 0 0 0 0 0 
0 0 0 0 0 0 0 0 0 
0 0 0 0 0 0 0 0 0 
7.18718e-07 0 0 0 0 0 0 0 0 
0 0 4.25515e-09 6.47022e-07 0 0 1.71862e-09 3.77739e-09 6.98797e-07 
0 2.41918e-09 1.54922e-09 0 0 0 0 1.31383e-09 0 
0 0 0 0 1.60696e-09 0 0 0 0 
0 0 0 0 0 0 0 0 7.14019e-10 
0 0 1.00117e-09 0 1.61454e-09 0 0 0 3.0888e-09 
0 0 2.88881e-09 0 0 0 0 1.33462e-09 0 
0 0 0 3.00107e-09 0 0 2.64754e-09 0 0 
0 0 0 0 0 0 0 0 0 
0 0 0 0 0 0 0 0 0 
0 0 0 6.59986e-07 0 0 0 0 7.75683e-07 
0 0 0 0 0 0 0 0 0 
0 0 0 0 0 0 0 0 0 
0 0 7.06241e-07 0 0 3.99836e-09 0 0 0 
0 8.95155e-10 2.89594e-09 1.45961e-10 0 7.08176e-10 0 0 0 
1.26539e-09 0 0 0 0 0 0 0 0 
0 1.11072e-09 0 0 0 0 0 0 0 
0 0 0 0 0 6.56438e-07 0 0 1.2306e-09 
0 3.18353e-10 0 0 3.97478e-10 1.04604e-09 0 1.57489e-09 0 
0 0 0 0 0 0 0 0 0 
0 0 0 0 0 0 0 0 0 
0 0 1.4228e-09 4.15582e-09 0 0 0 0 0 
0 0 3.4976e-09 2.3588e-09 0 0 1.20063e-09 0 0 
0 0 0 0 1.14753e-09 0 0 0 0 
1.64604e-09 0 0 0 0 0 2.29116e-09 6.12628e-09 3.74706e-09 
0 5.92498e-09 7.04111e-07 0 0 2.27109e-10 0 0 0 
0 0 0 0 3.83234e-09 2.95363e-09 4.85591e-09 1.54199e-09 0 
0 0 4.53731e-10 0 0 0 1.87609e-09 0 0 
0 0 2.69811e-09 0 0 0 0 0 0 
0 0 0 0 0 6.73358e-07 0 0 0 
2.23014e-10 0 0 0 0 0 0 0 0 
0 0 0 0 0 0 0 0 0 
0 0 0 0 0 0 1.18845e-09 0 7.1162e-07 
9.10996e-09 1.00505e-09 7.43813e-07 4.88148e-09 2.57644e-09 0 0 0 0 
0 8.49459e-10 0 0 0 0 0 0 0 
0 1.08463e-09 1.38657e-09 0 0 0 0 0 0 
0 0 0 7.22628e-09 0 0 0 0 0 
0 0 0 0 1.29242e-09 0 6.59284e-07 4.66216e-09 2.31142e-09 
0 0 0 0 0 0 6.50289e-07 2.19051e-09 1.56831e-09 
0 0 6.83541e-09 3.46718e-09 2.74061e-09 0 0 0 8.73287e-10 
0 0 0 0 0 0 0 0 0 
0 0 0 0 0 0 0 0 0 
0 0 0 0 0 0 0 0 0 
0 0 0 0 0 0 1.99331e-09 2.14422e-09 0 
0 0 0 0 0 6.03165e-10 1.47825e-09 0 2.90518e-09 
0 0 2.93642e-09 1.43083e-09 0 0 0 0 0 
0 0 3.81142e-10 0 0 0 0 0 0 
7.02545e-07 0 0 7.23878e-07 4.71451e-09 0 0 0 0 
0 0 0 0 0 0 0 2.68694e-09 0 
0 0 0 1.68021e-09 1.29023e-09 0 4.52471e-09 0 3.5974e-09 
0 0 4.18455e-09 6.50652e-07 0 0 1.14166e-09 0 1.16199e-09 
0 0 0 0 2.02767e-09 0 0 0 0 
0 0 4.63355e-10 0 0 0 0 0 0 
0 0 0 0 0 0 0 0 0 
0 0 3.90481e-11 0 0 0 0 0 3.89088e-10 
0 0 0 0 0 0 2.09616e-09 3.33032e-09 7.78552e-11 
0 8.72075e-07 0 0 0 0 0 0 0 
0 0 0 0 0 0 0 7.20757e-07 0 
5.66462e-09 0 0 0 0 0 0 0 0 
0 0 0 8.53662e-11 1.47708e-09 2.29192e-09 2.25008e-09 3.69427e-09 0 
0 0 0 0 0 0 0 0 0 
0 0 0 0 0 0 0 1.27279e-10 0 
0 0 0 0 0 1.30456e-11 0 6.76131e-07 4.4737e-09 
0 0 0 0 0 0 0 0 0 
0 0 0 0 0 0 0 0 0 
0 0 0 0 0 0 0 0 5.75226e-11 
0 1.33778e-09 1.15033e-09 0 1.58237e-09 0 0 4.00501e-10 0 
3.71821e-09 0 8.85077e-07 0 0 0 0 0 0 
0 0 0 0 0 2.71714e-09 0 5.73924e-09 0 
0 0 3.40857e-09 2.87699e-09 0 0 0 0 1.51548e-09 
0 0 0 0 0 0 0 5.20642e-07 4.59794e-10 
0 3.32892e-09 0 0 0 0 2.32495e-09 3.60346e-09 0 
0 0 1.19809e-09 1.779e-09 0 0 0 0 0 
0 0 0 0 0 0 1.90518e-09 0 0 
0 0 0 0 0 0 0 0 0 
0 0 0 0 0 0 0 0 6.82888e-11 
0 0 0 0 0 0 0 0 0 
0 0 0 0 0 0 9.2061e-10 0 0 
0 0 0 0 0 5.47733e-09 6.84912e-07 4.59431e-09 0 
0 0 0 0 8.79783e-10 0 0 0 0 
0 0 0 0 0 0 0 0 0 
0 0 0 0 0 0 0 0 5.61293e-09 
0 0 0 0 7.48676e-07 0 8.04964e-07 0 0 
0 0 0 0 0 0 0 0 0 
0 0 0 0 0 3.64759e-09 6.55827e-07 0 0 
0 0 0 0 0 0 0 0 0 
0 0 0 0 0 0 0 0 0 
0 0 0 0 0 0 0 0 0 
0 0 0 0 0 0 0 0 0 
2.31656e-09 1.38888e-09 0 0 0 0 1.48353e-09 4.47078e-09 8.3662e-10 
0 1.69451e-09 0 0 0 0 0 0 0 
8.99461e-07 9.13833e-07 0 4.15827e-09 3.61176e-10 0 0 0 4.49045e-09 
0 0 0 0 0 0 0 0 0 
8.07672e-10 1.34201e-09 1.84182e-09 0 0 0 0 3.54874e-09 0 
1.93942e-09 0 0 0 0 9.75944e-10 8.25747e-10 0 0 
0 0 0 0 0 0 2.16285e-09 2.41785e-09 0 
2.63545e-09 0 0 0 0 0 0 0 0 
0 0 0 0 0 0 0 0 0 
0 0 0 0 0 0 0 0 0 
0 0 0 0 0 0 0 0 0 
0 0 0 2.54192e-09 0 0 0 0 0 
0 9.06639e-10 0 0 0 0 0 0 3.05222e-09 
0 0 0 0 4.35452e-09 0 0 0 3.59341e-09 
0 0 2.05737e-09 0 3.94961e-09 0 0 0 0 
0 2.82366e-09 0 0 0 0 0 0 3.33101e-09 
8.77512e-07 0 0 7.358e-07 0 1.31999e-09 1.71418e-09 0 0 
0 0 0 0 0 0 0 0 0 
0 0 0 0 0 0 0 0 0 
0 0 0 0 0 0 0 0 0 
0 0 0 0 0 0 0 0 0 
0 0 0 0 0 0 0 0 0 
0 0 0 3.68802e-09 7.14231e-07 0 9.23255e-09 0 0 
4.22295e-09 3.30162e-09 0 2.01829e-09 0 0 0 0 1.04166e-09 
0 0 0 0 0 0 0 0 0 
0 7.62155e-07 0 0 0 6.58803e-07 0 1.13791e-09 7.68077e-10 
0 7.76589e-10 0 0 1.73768e-09 0 0 0 0 
8.31895e-07 0 0 0 2.83354e-09 0 0 0 0 
0 0 0 0 0 0 0 0 0 
0 0 0 7.76368e-10 4.17051e-10 0 0 0 0 
0 0 0 0 0 0 0 0 0 
0 0 0 0 0 0 0 0 0 
0 0 0 0 0 0 0 0 0 
0 0 5.55497e-10 0 0 0 0 7.7899e-07 4.65664e-09 
0 0 0 6.54301e-07 0 0 1.65532e-09 3.03076e-10 0 
0 2.17248e-09 0 0 7.12592e-07 0 0 0 0 
0 0 1.0086e-08 0 0 0 4.35465e-09 0 1.38864e-09 
0 0 0 0 0 0 6.14746e-10 0 0 
0 0 1.09974e-09 0 7.48215e-07 6.97378e-09 0 0 0 
0 0 0 0 0 0 0 0 0 
0 0 0 0 0 0 0 0 0 
0 0 0 0 0 0 0 0 0 
0 0 0 0 0 0 0 0 0 
0 0 0 0 0 0 0 0 0 
0 0 0 0 0 0 0 0 5.43897e-09 
3.41374e-09 0 0 4.01709e-09 4.51164e-09 0 1.65975e-09 0 0 
0 0 0 0 0 0 0 1.0886e-09 8.44729e-09 
0 8.81161e-07 0 8.21364e-07 2.57743e-09 3.93621e-09 0 0 3.74789e-09 
0 0 0 0 0 0 0 0 0 
0 0 2.3228e-09 0 0 0 0 0 0 
5.17261e-10 0 0 0 0 0 0 0 0 
0 0 0 0 0 0 0 0 0 
0 0 0 0 0 0 0 0 0 
0 0 0 0 0 0 0 0 0 
0 0 0 0 0 0 6.90689e-10 0 0 
0 0 0 0 0 0 1.69346e-09 2.44805e-09 1.03953e-08 
7.33396e-07 0 0 1.50474e-09 0 0 0 1.35139e-09 0 
0 0 0 0 0 0 0 9.07596e-09 0 
0 8.60038e-07 0 0 0 0 0 0 0 
0 0 0 0 0 6.67731e-07 0 3.58397e-09 0 
0 1.52347e-09 0 0 4.16551e-09 0 0 0 0 
0 0 0 0 0 0 0 0 0 
0 0 5.69718e-10 0 0 0 0 0 0 
0 0 0 0 0 0 0 0 0 
0 0 0 0 0 0 0 0 0 
0 0 0 0 0 0 0 6.44294e-07 0 
0 0 0 0 0 0 0 0 0 
0 0 2.02943e-09 0 2.11386e-09 0 2.46186e-09 1.50213e-09 0 
0 0 0 7.50731e-10 0 0 0 0 0 
7.54742e-07 0 0 0 0 0 0 0 0 
0 0 0 1.28314e-09 0 0 5.19998e-09 0 2.98723e-09 
0 0 0 0 0 0 2.47955e-09 0 9.18191e-10 
1.07447e-09 0 0 0 0 0 0 0 0 
0 0 0 0 0 0 0 0 0 
3.68301e-10 0 0 0 0 0 0 0 9.29744e-11 
0 0 0 0 0 0 0 0 0 
0 0 0 0 0 0 2.28059e-09 2.04287e-09 0 
0 0 0 0 0 0 0 0 0 
0 2.98856e-09 0 0 0 0 0 0 0 
0 0 0 0 5.39215e-10 0 0 3.13439e-09 0 
0 0 0 0 0 0 6.26407e-10 1.02283e-09 0 
0 0 0 0 0 0 0 0 0 
4.83475e-09 0 0 8.4619e-07 0 8.42057e-07 8.7922e-09 0 6.34817e-10 
0 0 0 0 0 0 0 0 0 
0 0 0 0 3.63717e-09 0 0 0 0 
2.24847e-09 1.2351e-09 0 0 0 0 0 0 0 
0 0 0 0 0 0 0 0 0 
0 0 0 0 0 0 0 0 0 
0 0 0 0 1.54238e-09 3.15624e-09 0 0 0 
0 0 0 0 0 0 0 0 0 
0 0 0 0 9.7115e-11 0 0 0 0 
1.59049e-09 0 5.22456e-09 0 0 3.95772e-09 0 0 0 
0 0 0 0 7.02608e-10 0 0 0 0 
6.76092e-07 2.97461e-09 0 0 0 8.80347e-07 0 3.65554e-09 2.60163e-09 
0 0 1.84847e-10 0 0 0 0 0 0 
3.16252e-10 0 1.276e-09 0 4.36198e-09 0 0 0 7.17177e-07 
2.17267e-09 0 0 0 0 0 0 0 0 
0 0 0 0 0 0 0 0 0 
0 0 0 0 0 0 1.27485e-10 0 0 
0 0 9.98189e-10 0 0 0 0 6.43994e-07 0 
0 1.39678e-09 0 0 0 0 0 0 0 
0 0 0 0 6.4834e-07 0 0 0 0 
0 0 0 0 9.07276e-07 8.93615e-07 0 0 0 
0 0 0 0 0 0 0 0 0 
2.38412e-09 8.6302e-09 0 0 0 1.46783e-09 0 0 1.82297e-09 
0 0 0 3.10936e-10 0 0 0 0 0 
1.48766e-09 0 0 0 0 1.23254e-08 7.00073e-07 0 0 
0 0 0 0 0 0 0 0 0 
0 0 0 0 0 0 0 0 0 
0 0 0 0 0 0 0 0 0 
0 0 0 0 0 0 0 1.41507e-09 1.63299e-09 
0 0 0 0 0 0 0 0 0 
1.21117e-10 0 0 0 3.04066e-09 0 0 2.43248e-09 0 
0 0 0 0 0 1.13359e-08 0 0 0 
0 0 0 0 0 0 0 0 0 
0 0 0 0 0 0 0 0 0 
0 0 0 0 0 0 0 0 0 
0 0 1.48309e-09 0 0 0 0 2.29686e-09 0 
5.05971e-09 0 7.11607e-07 0 0 0 0 0 0 
0 0 0 0 0 0 0 0 0 
0 0 0 0 0 0 0 0 0 
5.01316e-10 4.0484e-10 0 0 9.10221e-10 0 0 0 0 
1.18501e-09 0 0 0 0 0 0 0 0 
0 0 0 0 0 2.49209e-09 0 0 4.58242e-10 
0 0 0 0 1.05847e-09 0 0 0 3.51859e-09 
1.52558e-10 0 0 0 0 0 0 0 0 
0 0 0 0 0 0 1.67618e-09 0 2.99204e-09 
2.6558e-09 0 0 0 0 0 0 0 0 
0 0 0 0 0 0 6.8758e-07 1.13616e-09 1.46217e-09 
0 0 3.43109e-09 2.32221e-09 0 0 0 0 0 
0 0 0 0 0 0 0 0 0 
0 0 0 0 0 0 0 0 0 
0 0 0 0 0 0 0 0 0 
0 0 0 4.18981e-10 0 0 0 0 0 
0 0 0 7.45552e-10 0 0 0 1.98002e-09 1.30894e-09 
0 0 0 0 1.94646e-09 8.55876e-09 6.77801e-07 0 0 
1.49277e-09 0 8.10911e-10 0 0 0 0 0 0 
0 0 0 0 0 0 8.10482e-10 0 0 
0 0 0 0 0 0 4.11567e-09 3.02982e-09 0 
0 0 0 6.54436e-07 0 2.11917e-09 6.57576e-10 0 0 
3.66189e-09 0 0 0 0 2.49439e-09 0 0 0 
0 0 0 0 0 0 0 0 0 
0 0 0 0 0 0 0 0 0 
0 0 0 1.68796e-09 0 2.08503e-09 0 0 0 
1.26941e-09 0 0 0 0 0 0 0 0 
0 0 0 0 0 0 6.4801e-07 0 0 
0 0 0 0 0 0 0 0 3.55239e-09 
0 0 1.0722e-09 0 0 0 0 0 0 
0 0 0 0 0 0 0 0 0 
0 0 0 0 0 2.49024e-09 6.2301e-09 6.49496e-07 0 
0 0 0 0 8.31747e-09 3.83131e-09 0 0 0 
0 1.65038e-09 0 0 0 0 0 1.21717e-09 1.43024e-09 
0 4.62773e-10 0 0 0 0 0 0 0 
0 0 0 0 0 0 0 0 0 
0 0 0 0 0 8.49047e-10 6.44372e-07 4.74165e-09 3.55302e-09 
0 0 0 0 0 0 0 0 0 
0 0 0 0 0 9.07332e-10 1.66605e-09 0 0 
0 0 0 0 0 0 9.5033e-10 1.24186e-09 0 
2.67535e-09 0 0 0 0 0 0 6.7776e-07 0 
0 8.9585e-10 0 0 0 0 0 0 0 
0 0 0 0 4.1209e-09 0 0 2.87773e-09 0 
0 0 0 8.99779e-10 0 0 0 0 0 
0 0 0 3.77221e-09 0 0 0 6.6053e-07 0 
0 0 5.1097e-10 0 0 0 0 0 0 
0 0 0 0 0 0 0 0 0 
0 0 0 0 1.01796e-09 0 0 0 2.40505e-09 
0 0 0 0 0 0 0 0 0 
0 7.2805e-10 0 0 0 0 0 0 5.37854e-10 
0 7.68496e-10 0 0 0 0 0 0 2.94587e-10 
0 0 0 0 2.14534e-10 0 2.62401e-09 0 0 
0 0 0 0 0 0 0 0 0 
0 0 0 0 0 6.48598e-07 4.29594e-09 4.30026e-09 0 
0 0 0 0 0 1.12115e-09 0 0 0 
3.46386e-09 0 6.57353e-07 3.04428e-09 0 1.71615e-09 0 1.71907e-09 0 
0 0 0 0 0 0 0 0 0 
0 0 0 0 0 0 0 0 0 
0 0 0 0 0 0 0 0 0 
1.48568e-09 3.46873e-10 0 0 0 0 0 0 0 
0 0 0 0 6.11955e-10 0 0 0 0 
0 0 1.09019e-09 0 0 0 0 7.43353e-10 0 
0 0 0 1.52457e-09 0 0 0 9.94869e-10 3.81094e-09 
0 0 0 9.85784e-07 9.13918e-07 0 0 3.59237e-10 0 
0 0 0 0 0 0 0 0 0 
9.17489e-10 9.31769e-10 0 0 0 0 6.44488e-10 0 0 
0 0 0 0 0 0 0 0 0 
0 0 0 0 0 0 0 0 0 
0 0 0 0 0 0 0 0 0 
0 0 0 0 0 0 0 0 0 
1.40992e-09 0 0 0 0 0 0 0 0 
0 0 0 0 0 0 1.26416e-09 1.16902e-09 0 
0 0 0 0 0 0 0 3.72961e-10 0 
0 0 0 0 0 0 0 0 0 
0 0 0 8.31489e-07 0 0 6.70213e-09 0 0 
5.06088e-10 5.63872e-10 0 0 0 0 0 6.079e-10 9.48821e-10 
0 0 0 0 0 0 0 0 0 
2.94077e-09 6.9309e-10 1.90675e-09 0 0 0 1.10231e-09 0 0 
0 0 1.83791e-09 0 0 0 0 0 0 
0 0 0 0 0 0 0 0 0 
0 0 0 0 0 0 0 0 5.53653e-10 
0 0 0 0 0 0 0 0 0 
0 0 0 0 0 0 1.83667e-09 0 0 
0 0 6.38822e-10 0 0 0 4.28909e-09 6.47265e-07 0 
0 0 0 0 1.70717e-09 0 0 0 0 
6.70631e-07 0 3.30211e-09 0 0 0 0 0 0 
0 0 0 0 0 0 0 0 0 
0 0 0 0 0 0 0 0 4.55723e-09 
6.66094e-07 0 0 1.36778e-09 1.33942e-09 0 0 0 0 
1.74114e-09 6.5684e-07 0 0 0 0 0 0 0 
0 0 0 0 0 0 0 0 0 
0 0 0 0 0 0 0 0 1.44066e-10 
0 0 0 5.74388e-09 0 0 0 0 0 
0 0 0 0 0 5.90487e-09 6.78916e-07 0 0 
0 0 0 1.41996e-09 0 0 0 3.45358e-09 0 
2.72938e-09 0 0 0 0 0 0 1.96444e-09 0 
0 6.2661e-09 0 0 0 0 0 3.57372e-09 3.34985e-10 
2.27663e-11 5.84268e-10 0 0 0 0 0 0 0 
0 0 0 0 0 0 0 0 0 
0 0 0 2.61857e-09 0 0 0 0 2.09488e-09 
0 1.126e-08 0 0 0 0 0 0 0 
0 0 0 0 0 0 0 0 0 
0 0 0 0 0 0 0 0 0 
0 0 0 6.44051e-07 0 0 0 0 0 
0 0 0 0 6.79592e-07 0 0 0 5.69343e-09 
0 0 0 3.30605e-10 0 0 0 3.6031e-09 0 
1.92806e-09 2.2114e-09 0 0 0 0 1.06835e-09 1.25861e-09 6.56609e-07 
4.66942e-09 3.47902e-09 0 0 0 0 0 2.01999e-09 0 
0 0 0 0 0 0 8.62912e-10 0 0 
0 0 0 0 0 0 0 0 1.72111e-09 
0 0 0 0 0 2.09892e-09 0 0 5.27091e-09 
0 0 2.23506e-09 0 0 0 0 0 0 
0 0 0 0 0 0 0 0 0 
0 0 0 0 0 0 0 0 0 
0 0 0 0 2.16101e-09 0 0 0 1.26628e-09 
0 0 0 0 0 0 0 0 0 
0 1.84785e-09 0 1.58553e-09 0 0 3.76768e-09 0 0 
2.09893e-09 0 0 9.02438e-10 0 0 0 0 0 
1.27182e-09 2.44185e-09 1.21723e-09 0 0 0 0 0 0 
0 0 1.47324e-09 6.68096e-07 4.9209e-09 0 0 7.91791e-10 0 
0 0 0 0 0 0 0 0 0 
0 0 0 0 0 1.63574e-09 0 2.41896e-09 0 
6.52392e-07 0 0 0 2.29616e-09 1.13358e-09 0 0 0 
0 0 0 0 0 0 0 0 0 
0 0 0 0 0 0 0 0 0 
0 0 0 1.00897e-09 0 0 0 0 9.04005e-10 
0 0 0 2.66968e-09 0 0 0 0 1.93391e-09 
2.29911e-09 2.56576e-09 7.37957e-07 3.60917e-09 0 0 0 6.63165e-07 2.46492e-09 
0 0 0 6.39746e-10 0 2.73184e-09 0 0 0 
7.03525e-10 2.02317e-09 0 3.31131e-10 0 0 0 0 0 
0 0 0 0 0 0 0 0 6.87527e-10 
0 0 0 0 0 0 0 0 0 
0 0 0 9.82924e-07 1.08421e-06 0 0 0 0 
0 0 0 0 0 0 0 0 0 
0 0 0 0 0 0 0 0 0 
0 0 0 0 0 0 0 0 0 
0 0 0 0 0 0 0 0 0 
0 5.83337e-10 0 0 0 7.08098e-07 2.11324e-09 0 1.85311e-09 
0 0 4.11826e-09 1.00511e-09 0 0 0 0 2.32197e-09 
2.19656e-09 0 0 0 0 6.71844e-07 2.17021e-09 1.16666e-09 1.59955e-09 
0 0 0 0 0 0 0 0 0 
5.84123e-10 0 0 0 0 0 3.91032e-09 0 4.62121e-10 
0 0 0 0 0 0 0 0 0 
0 0 0 0 0 9.495e-07 0 0 3.95069e-09 
1.77531e-09 0 0 0 0 4.1239e-10 0 0 7.66633e-07 
0 0 1.58732e-09 0 0 0 0 0 0 
0 0 0 0 0 0 0 0 0 
0 0 0 0 0 0 0 0 0 
0 0 0 0 0 0 1.56275e-09 0 1.30089e-09 
0 0 0 0 7.4367e-07 0 2.28147e-09 0 3.14811e-09 
0 0 0 4.09462e-09 0 0 0 0 0 
2.16592e-09 0 0 0 0 0 0 0 0 
0 0 0 0 0 0 0 6.80429e-07 0 
0 1.73915e-09 4.5079e-10 0 0 0 0 0 0 
0 0 0 1.2445e-09 0 0 0 0 0 
2.18494e-09 3.55305e-09 0 0 0 0 0 0 0 
0 7.70183e-07 0 0 0 0 0 0 0 
0 0 0 0 0 0 0 0 0 
0 0 0 0 0 0 0 0 0 
0 0 0 0 0 6.49857e-09 6.95904e-07 3.21407e-09 0 
4.28598e-09 0 0 1.85658e-09 0 0 0 0 1.70785e-09 
0 0 3.64546e-09 6.64666e-07 8.03625e-10 8.87127e-10 0 1.638e-09 0 
0 0 1.28057e-09 0 1.79234e-09 0 1.10141e-09 0 0 
0 0 2.18961e-09 7.63317e-07 8.13379e-09 0 0 0 0 
1.96683e-09 0 7.6725e-09 0 9.08916e-10 0 0 1.16512e-09 1.20611e-09 
0 0 1.23794e-09 0 0 0 0 4.41629e-09 1.29208e-09 
0 6.68481e-07 3.95443e-09 1.90474e-09 0 8.90209e-10 0 0 0 
0 0 0 3.03407e-09 0 0 0 0 0 
0 0 0 0 0 0 0 0 0 
0 0 0 0 0 0 0 0 0 
0 0 0 0 0 0 2.87879e-09 0 0 
0 0 0 2.47353e-10 0 0 7.27577e-10 0 2.56285e-09 
0 0 0 0 0 1.03996e-08 0 1.86059e-09 0 
6.72134e-07 0 2.55709e-09 0 0 2.95761e-09 0 0 0 
0 0 0 0 0 7.66195e-07 0 1.86937e-09 0 
0 0 0 4.5797e-09 0 0 2.6987e-09 1.35864e-09 0 
0 4.67846e-10 0 0 0 0 0 0 0 
0 2.6605e-09 0 1.37696e-09 0 0 0 0 0 
0 0 0 0 2.75416e-09 0 0 0 0 
0 0 0 0 0 0 0 0 0 
0 0 0 0 0 0 0 0 0 
0 0 0 0 0 0 0 0 0 
0 1.55163e-09 0 0 0 0 0 0 6.74517e-07 
0 0 1.9886e-09 2.03955e-09 1.20473e-09 0 0 3.96114e-09 0 
0 0 0 0 0 0 6.62041e-07 0 0 
0 0 0 1.44991e-09 0 0 0 0 0 
0 0 0 0 0 9.6374e-07 1.77456e-09 0 0 
0 0 2.91411e-09 0 6.55496e-07 0 0 0 0 
0 1.92369e-09 2.61951e-09 0 0 0 0 0 0 
0 0 4.73592e-09 0 0 0 0 1.02613e-09 0 
0 0 0 0 0 0 0 0 0 
0 0 0 0 0 0 0 0 0 
0 0 0 0 0 0 0 0 0 
0 0 0 8.9083e-12 0 0 0 0 0 
0 0 0 0 0 0 0 0 0 
0 9.86094e-10 0 1.37635e-09 0 0 0 0 0 
1.62808e-09 9.68796e-10 0 0 0 0 2.09496e-09 0 0 
0 0 0 0 0 0 0 0 0 
0 0 0 0 0 4.31596e-09 2.55705e-09 0 0 
0 0 0 0 0 0 8.45357e-10 0 0 
3.13244e-09 0 0 5.25705e-09 8.23345e-07 0 0 0 0 
0 0 0 0 0 0 0 0 0 
0 0 0 0 0 0 0 0 0 
0 0 0 0 0 0 0 0 0 
0 1.02639e-09 0 0 0 0 0 5.38381e-10 0 
0 0 0 2.30037e-09 0 0 0 0 0 
0 0 1.87759e-09 0 0 3.54501e-09 2.70668e-09 0 2.46383e-09 
0 1.67158e-09 1.50425e-09 0 0 0 0 0 0 
0 0 0 0 0 0 0 1.00378e-06 9.84376e-09 
0 0 0 0 2.21268e-09 0 0 0 2.69267e-09 
0 5.05908e-10 0 2.51592e-09 0 0 0 0 0 
0 0 3.86328e-09 0 9.8287e-07 0 0 0 0 
0 0 0 0 0 0 0 0 0 
0 0 0 0 0 0 0 0 0 
0 0 0 0 0 0 0 0 1.62563e-09 
6.60024e-09 0 1.22024e-09 0 0 0 0 0 6.51349e-07 
4.09462e-09 0 0 1.78538e-09 0 0 2.21885e-09 0 5.38722e-10 
0 0 0 0 0 1.09714e-09 0 6.72099e-07 0 
0 0 0 0 0 0 0 0 0 
7.24774e-10 0 0 0 2.89741e-09 0 0 0 9.4259e-07 
0 0 0 0 7.48189e-07 0 0 0 0 
0 0 0 0 0 0 0 1.75126e-09 0 
0 6.7778e-07 1.39115e-09 0 0 9.19393e-07 0 0 0 
1.23833e-09 0 0 0 0 0 0 0 0 
0 0 0 0 0 0 0 0 0 
0 0 0 0 0 0 0 0 0 
0 0 0 6.22081e-10 2.84966e-10 0 1.43854e-09 0 0 
2.89719e-09 2.11091e-09 0 1.45711e-09 0 0 0 0 0 
0 0 0 0 0 0 0 0 7.84604e-10 
0 1.43624e-09 2.46898e-09 0 0 2.41053e-09 0 0 0 
1.20368e-09 0 0 2.05529e-09 0 1.08631e-09 1.48319e-09 0 0 
6.26376e-09 0 0 9.50131e-07 0 1.37848e-09 0 3.91175e-09 0 
0 4.27423e-09 0 1.88506e-09 3.88129e-09 0 6.65629e-07 0 0 
1.71945e-09 0 3.85441e-09 1.36739e-09 3.76659e-09 0 0 0 0 
0 0 4.88284e-10 0 0 0 0 0 0 
0 0 0 0 0 0 0 0 0 
0 0 0 0 0 0 0 0 0 
0 5.17041e-09 6.77207e-07 5.60114e-09 0 6.27148e-10 0 0 0 
0 0 2.95257e-09 0 0 0 7.38951e-10 1.1427e-09 6.52145e-07 
0 1.42551e-09 0 0 0 0 0 0 0 
0 0 7.03841e-09 7.38582e-07 0 3.31149e-09 0 1.89266e-09 0 
0 1.74656e-09 0 1.58024e-09 0 0 0 0 0 
0 0 1.18597e-09 0 9.14458e-07 0 0 4.30139e-09 0 
6.97636e-07 0 0 6.86647e-07 4.84397e-09 0 0 4.86836e-09 2.92712e-09 
0 2.34354e-09 3.90371e-09 0 0 0 0 0 0 
0 5.90157e-10 0 0 0 0 0 0 0 
0 0 0 0 0 0 0 0 0 
0 0 0 0 0 0 2.78677e-10 0 0 
0 0 0 0 0 0 0 0 0 
0 0 0 0 0 0 0 0 0 
1.02474e-09 0 0 0 5.96399e-10 0 0 0 0 
1.18381e-09 0 0 0 0 0 7.67076e-07 0 4.12927e-10 
0 0 0 0 0 0 0 0 0 
0 0 0 0 0 0 0 5.02507e-10 0 
0 0 0 0 3.93632e-09 0 6.07881e-09 0 0 
0 0 0 0 0 5.17874e-09 4.93112e-09 0 0 
0 0 0 0 0 0 0 0 0 
0 0 0 0 0 0 0 0 0 
0 0 0 0 0 0 0 0 0 
0 0 0 0 1.03029e-12 3.23344e-09 0 6.32351e-10 0 
0 4.35235e-10 2.77191e-09 8.50109e-10 0 0 0 0 9.7515e-10 
0 0 0 0 0 0 0 0 0 
0 0 2.2205e-09 1.32409e-09 0 0 0 1.28981e-09 2.86812e-09 
3.00297e-09 0 0 0 6.80099e-07 0 0 0 0 
0 0 1.52877e-09 0 0 0 0 0 0 
0 0 6.73794e-10 0 0 0 0 6.30796e-09 0 
9.37191e-10 0 4.36346e-09 0 0 7.79016e-07 0 0 6.0342e-10 
0 0 0 0 0 0 0 0 0 
0 0 0 0 0 0 0 0 0 
0 0 0 0 0 0 0 0 0 
1.31e-09 0 0 8.75963e-07 8.93424e-07 0 0 1.26936e-10 0 
0 0 0 6.12239e-09 0 0 0 0 0 
2.29105e-09 0 0 1.89751e-09 0 0 0 0 0 
0 0 0 0 0 0 0 8.78233e-07 1.02435e-09 
0 0 0 0 4.47575e-09 1.69571e-09 0 0 6.74994e-07 
0 1.32535e-09 0 0 6.60865e-07 0 0 0 0 
0 0 0 2.43538e-09 1.42499e-09 0 3.32669e-09 0 0 
0 0 6.84335e-07 0 0 0 0 7.67448e-07 0 
0 0 0 0 0 0 0 0 0 
0 0 0 0 0 0 0 0 0 
0 0 0 0 0 0 0 0 0 
0 1.42451e-09 0 0 0 0 5.76935e-09 0 0 
1.89027e-09 1.31656e-09 0 0 0 6.44844e-07 7.65557e-09 2.87255e-09 1.05463e-09 
0 6.98264e-10 0 1.82544e-09 6.51266e-07 2.7151e-09 1.74046e-09 0 0 
7.51369e-10 0 3.25831e-10 0 0 0 0 0 0 
0 0 0 0 4.94115e-09 0 0 0 8.85447e-10 
0 5.3905e-09 0 0 0 0 0 0 0 
1.6032e-09 0 6.59535e-07 0 0 0 2.3101e-09 2.39866e-10 0 
6.83826e-07 0 0 2.86834e-09 0 1.2841e-09 0 0 0 
0 0 0 0 0 0 0 0 0 
0 0 0 0 0 0 0 0 0 
0 0 0 0 0 0 0 0 0 
0 0 8.31703e-10 1.05181e-09 2.14404e-09 0 0 0 0 
0 0 1.38253e-09 4.51414e-10 0 0 0 0 1.74658e-09 
0 0 0 0 0 3.80521e-09 0 0 0 
0 9.03186e-10 0 0 0 0 0 9.92732e-07 1.15624e-06 
1.04981e-06 0 0 1.45646e-09 7.7468e-07 0 0 3.16915e-09 4.28968e-09 
0 0 3.18778e-09 0 0 0 0 0 0 
0 0 2.18912e-09 3.10777e-09 0 3.69166e-10 3.21082e-09 1.06436e-09 0 
1.33294e-09 0 0 0 0 7.82941e-10 0 1.67552e-09 6.79896e-10 
3.25615e-09 0 9.43344e-10 0 0 0 0 0 0 
0 0 0 0 0 0 0 0 0 
0 0 0 0 0 0 0 0 0 
0 0 0 0 0 5.56541e-09 0 0 6.94362e-09 
8.74925e-07 0 0 1.08872e-09 0 0 0 0 0 
0 0 0 0 0 1.07199e-09 1.56377e-09 0 0 
0 0 0 0 0 0 0 0 0 
1.69834e-09 0 0 0 0 0 5.35896e-09 7.35084e-07 0 
0 3.59503e-09 0 0 0 0 0 0 0 
0 4.01839e-10 0 0 0 0 0 0 6.62827e-07 
1.42223e-09 0 0 0 2.80216e-09 9.86938e-10 0 0 0 
0 0 1.96722e-11 0 0 0 0 0 0 
0 0 0 0 0 0 0 0 0 
0 0 0 0 0 0 0 0 0 
0 0 0 0 0 0 0 0 4.33728e-09 
0 8.65176e-07 0 0 0 0 0 1.07984e-09 0 
6.74329e-10 0 0 0 0 0 0 0 8.20807e-10 
0 0 0 0 0 0 0 0 0 
0 2.25407e-09 0 2.15429e-09 0 7.41072e-07 0 0 3.75387e-09 
0 0 0 0 3.79218e-10 0 0 0 0 
0 0 0 0 0 0 0 0 0 
0 0 0 0 0 2.25343e-09 0 0 0 
0 4.11381e-10 0 0 0 0 0 0 0 
0 0 0 0 0 0 0 0 0 
0 0 0 0 0 0 0 0 0 
0 0 0 0 1.1548e-09 0 1.16515e-09 0 0 
0 0 1.77868e-08 0 2.65967e-09 0 0 0 0 
0 0 0 0 0 0 0 0 0 
0 0 0 2.06173e-09 0 0 0 2.2343e-09 0 
4.35992e-09 7.0993e-07 3.26423e-09 0 0 0 7.12051e-09 3.64414e-09 5.30226e-09 
0 0 0 0 8.6505e-07 0 0 0 0 
0 0 0 0 0 0 0 1.73631e-10 0 
9.54022e-10 0 1.72784e-09 0 0 1.8656e-09 2.45582e-09 0 1.14898e-09 
1.15981e-09 3.74068e-10 0 0 0 0 0 0 0 
0 0 0 0 0 0 0 0 0 
0 0 0 0 0 0 0 0 0 
0 0 0 0 0 0 0 0 0 
0 0 1.52357e-09 0 0 0 4.82349e-10 0 0 
0 0 0 0 0 0 0 0 0 
0 0 0 0 0 2.92486e-09 6.46933e-07 5.32401e-09 1.26831e-09 
0 3.79307e-09 0 0 0 2.06236e-09 0 2.51502e-09 0 
0 0 0 0 2.40784e-09 8.61488e-07 0 3.60397e-09 1.70426e-09 
0 0 0 0 0 0 0 0 0 
0 0 0 0 2.93579e-10 7.19396e-10 0 0 2.24893e-09 
0 0 0 0 0 0 0 0 0 
2.26565e-11 0 0 0 0 0 0 0 0 
0 0 0 0 0 0 0 0 0 
0 0 0 0 0 0 0 4.13977e-09 0 
0 1.59236e-09 0 1.10273e-09 0 0 0 0 1.39938e-09 
0 0 0 0 0 0 0 0 0 
0 0 0 0 0 0 0 3.2252e-09 0 
0 0 0 2.15606e-09 0 0 8.67821e-11 0 0 
0 0 0 0 0 0 0 0 0 
0 0 0 0 0 0 0 0 0 
0 0 0 0 0 0 1.44439e-09 0 6.52598e-07 
0 1.86105e-09 0 0 0 0 0 0 0 
0 0 0 0 0 0 0 0 0 
0 0 0 0 0 0 0 0 0 
0 0 0 0 0 0 0 0 6.44155e-07 
0 0 8.87921e-10 0 2.24895e-09 3.57545e-09 0 3.48649e-10 1.06253e-09 
1.15196e-09 0 0 0 0 0 0 0 0 
0 0 0 0 0 0 0 0 7.94299e-10 
0 0 0 0 6.97761e-10 0 0 5.75864e-10 0 
0 0 0 0 0 1.41327e-09 8.66113e-11 5.17795e-09 0 
1.95716e-09 0 0 0 4.20061e-09 0 7.45292e-10 6.95606e-10 0 
0 0 0 0 0 0 0 0 3.61608e-09 
1.92885e-09 0 0 0 0 1.3373e-09 0 0 0 
0 0 0 0 0 0 0 0 0 
0 0 0 0 0 0 0 0 0 
0 0 0 0 0 0 0 0 2.11942e-09 
1.46046e-09 0 2.07746e-10 0 0 0 1.01723e-09 0 0 
0 0 0 0 0 0 0 0 0 
0 0 0 0 1.21386e-09 0 0 0 8.96629e-10 
0 0 0 0 0 6.7165e-10 0 0 0 
0 0 0 0 0 0 0 0 0 
0 0 2.31657e-09 0 1.21631e-09 6.82898e-07 0 3.07693e-09 0 
0 0 0 0 0 0 0 0 0 
0 0 0 0 0 0 0 1.35634e-09 0 
0 0 0 0 0 0 0 0 0 
0 0 0 0 0 0 0 0 0 
0 0 0 0 0 0 0 0 0 
0 2.31202e-09 1.6403e-09 1.23232e-09 0 0 0 3.3303e-09 6.59599e-07 
4.45309e-09 0 0 0 0 0 0 0 0 
5.15417e-10 3.18134e-10 0 0 3.28943e-10 1.11381e-09 0 0 0 
0 0 0 0 0 0 0 4.76244e-10 0 
0 0 0 0 0 0 0 0 1.45258e-09 
0 0 2.69207e-09 8.8581e-10 0 0 0 0 3.33056e-09 
0 0 0 0 0 0 0 0 0 
1.37371e-09 0 0 0 0 2.01617e-09 0 0 0 
0 0 0 0 0 0 0 0 0 
0 0 0 0 0 0 0 0 0 
0 0 0 0 0 0 0 0 0 
0 7.16098e-10 0 0 1.11187e-09 0 0 0 0 
0 0 4.40413e-09 0 6.73155e-07 0 0 1.61289e-09 0 
0 0 0 0 0 1.52724e-10 0 9.79909e-10 0 
0 0 0 0 9.32087e-10 0 0 2.70172e-09 0 
0 0 0 0 0 0 0 0 0 
0 5.86367e-10 0 0 0 6.79235e-07 6.55229e-09 0 0 
3.93573e-09 0 0 0 0 0 0 0 0 
0 7.61513e-10 1.9181e-09 0 6.526e-07 4.29451e-09 0 0 2.57156e-09 
0 1.63252e-09 0 0 0 0 0 0 0 
0 0 0 0 0 0 0 0 0 
0 0 0 0 0 0 0 0 0 
0 0 0 0 0 0 0 0 0 
0 0 0 0 0 0 0 0 0 
0 0 0 0 3.90583e-09 0 0 2.74667e-09 0 
0 0 2.7009e-09 0 0 0 2.52246e-09 6.45405e-07 0 
4.59762e-09 0 0 0 0 0 0 0 0 
6.4705e-07 4.39955e-09 0 1.36369e-09 0 0 0 6.7801e-12 0 
1.47487e-08 6.62937e-07 0 2.15524e-09 0 0 0 0 0 
0 0 1.39952e-09 0 0 0 0 0 0 
0 0 8.56397e-07 0 0 0 0 0 0 
0 0 0 0 0 0 0 0 0 
0 0 0 0 0 0 0 0 0 
0 0 0 0 0 0 0 0 0 
0 0 0 0 0 0 4.90134e-09 0 0 
1.17772e-09 1.65692e-10 0 0 1.10603e-09 0 6.71014e-07 0 3.67607e-09 
0 0 0 0 0 0 2.33877e-09 4.92163e-10 0 
0 0 5.50166e-10 0 0 0 0 0 0 
0 0 1.43238e-09 0 0 0 3.55167e-09 0 0 
0 0 0 2.6495e-09 0 0 0 0 0 
0 0 0 0 0 0 0 0 7.70699e-10 
0 2.75453e-09 0 8.56649e-07 5.02919e-09 0 0 0 0 
0 0 0 0 0 0 0 0 0 
0 0 0 0 0 0 0 0 0 
0 0 0 0 0 0 0 0 1.06847e-09 
0 1.69276e-09 0 0 0 7.82634e-09 6.95656e-07 2.81145e-09 2.70789e-09 
9.99935e-10 2.757e-09 0 0 0 0 0 0 0 
0 0 0 8.14118e-07 0 1.06335e-09 0 1.79669e-09 0 
0 0 0 0 0 0 0 0 0 
2.40376e-09 6.21705e-11 0 0 0 0 0 0 0 
3.8343e-10 0 0 0 0 0 2.23004e-10 0 0 
0 0 0 0 0 0 2.06388e-09 0 0 
0 0 0 0 0 0 1.39313e-09 0 2.66565e-10 
0 0 0 0 0 0 0 0 0 
0 0 0 0 0 0 0 0 0 
0 0 0 0 0 0 3.82087e-09 1.06702e-09 4.64944e-09 
0 1.08006e-09 0 2.55303e-09 8.11422e-07 0 0 0 3.01715e-09 
7.67192e-10 0 0 0 0 0 0 0 0 