# vtk DataFile Version 5.1
vtk output
ASCII
DATASET STRUCTURED_POINTS
DIMENSIONS 100 100 1
SPACING 1 1 1
ORIGIN 0 0 0
POINT_DATA 10000
FIELD FieldData 6
feature_1 1 10000 float
0 0 0 0 0 0 0 0 0 
0 0 0 0 0 0 0 0 0 
0 0 0 0 0 0 0 0 0 
0 0 0 0 0 0 0 0 0 
0 0 0 0 0 0 0 0 0 
0 0 0 0 0 0 0 0 0 
0 0 0 0 0 0 0 0 0 
0 0 0 0 0 0 0 0 0 
0 0 0 0 0 0 0 0 0 
0 0 0 0 0 0 0 0 0 
0 0 0 0 0 0 0 0 0 
0 0 0 0 0 0 0 0 0 
0 0 0 0 0 0 0 0 0 
0 0 0 0 0 0 0 0 0 
0 0 0 0 0 0 0 0 0 
0 0 0 0 0 0 0 0 0 
0 0 0 0 0 0 0 0 0 
0 0 0 0 0 0 0 0 0 
0 0 0 0 0 0 0 0 0 
0 0 0 0 0 0 0 0 0 
0 0 0 0 0 0 0 0 0 
0 0 0 0 0 0 0 0 0 
0 0 0 0 0 0 0 0 0 
0 0 0 0 0 0 0 0 0 
0 0 0 0 0 0 0 0 0 
0 0 0 0 0 0 0 0 0 
0 0 0 0 0 0 0 0 0 
0 0 0 0 0 0 0 0 0 
0 0 0 0 0 0 0 0 0 
0 0 0 0 0 0 0 0 0 
0 0 0 0 0 0 0 0 0 
0 0 0 0 0 0 0 0 0 
0 0 0 0 0 0 0 0 0 
0 0 0 0 0 0 0 0 0 
0 0 0 0 0 0 0 0 0 
0 0 0 0 0 0 0 0 0 
0 0 0 0 0 0 0 0 0 
0 0 0 0 0 0 0 0 0 
0 0 0 0 0 0 0 0 0 
0 0 0 0 0 0 0 0 0 
0 0 0 0 0 0 0 0 0 
0 0 0 0 0 0 0 0 0 
0 0 0 0 0 0 0 0 0 
0 0 0 0 0 0 0 0 0 
0 0 0 0 0 0 0 0 0 
0 0 0 0 0 0 0 0 0 
0 0 0 0 0 0 0 0 0 
0 0 0 0 0 0 0 0 0 
0 0 0 0 0 0 0 0 0 
0 0 0 0 0 0 0 0 0 
0 0 0 0 0 0 0 0 0 
0 0 0 0 0 0 0 0 0 
0 0 0 0 0 0 0 0 0 
0 0 0 0 0 0 0 0 0 
0 0 0 0 0 0 0 0 0 
0 0 0 0 0 0 0 0 0 
0 0 0 0 0 0 0 0 0 
0 0 0 0 0 0 0 0 0 
0 0 0 0 0 0 0 0 0 
0 0 0 0 0 0 0 0 0 
0 0 0 0 0 0 0 0 0 
0 0 0 0 0 0 0 0 0 
0 0 0 0 0 0 0 0 0 
0 0 0 0 0 0 0 0 0 
0 0 0 0 0 0 0 0 0 
0 0 0 0 0 0 0 0 0 
0 0 0 0 0 0 0 0 0 
0 0 0 0 0 0 0 0 0 
0 0 0 0 0 0 0 0 0 
0 0 0 0 0 0 0 0 0 
0 0 0 0 0 0 0 0 0 
0 0 0 0 0 0 0 0 0 
0 0 0 0 0 0 0 0 0 
0 0 0 0 0 0 0 0 0 
0 0 0 0 0 0 0 0 0 
0 0 0 0 0 0 0 0 0 
0 0 0 0 0 0 0 0 0 
0 0 0 0 0 0 0 0 0 
0 0 0 0 0 0 0 0 0 
0 0 0 0 0 0 0 0 0 
0 0 0 0 0 0 0 0 0 
0 0 0 0 0 0 0 0 0 
0 0 0 0 0 0 0 0 0 
0 0 0 0 0 0 0 0 0 
0 0 0 0 0 0 0 0 0 
0 0 0 0 0 0 0 0 0 
0 0 0 0 0 0 0 0 0 
0 0 0 0 0 0 0 0 0 
0 0 0 0 0 0 0 0 0 
0 0 0 0 0 0 0 0 0 
0 0 0 0 0 0 0 0 0 
0 0 0 0 0 0 0 0 0 
0 0 0 0 0 0 0 0 0 
0 0 0 0 0 0 0 0 0 
0 0 0 0 0 0 0 0 0 
0 0 0 0 0 0 0 0 0 
0 0 0 0 0 0 0 0 0 
0 0 0 0 0 0 0 0 0 
0 0 0 0 0 0 0 0 0 
0 0 0 0 0 0 0 0 0 
0 0 0 0 0 0 0 0 0 
0 0 0 0 0 0 0 0 0 
0 0 0 0 0 0 0 0 0 
0 0 0 0 0 0 0 0 0 
0 0 0 0 0 0 0 0 0 
0 0 0 0 0 0 0 0 0 
0 0 0 0 0 0 0 0 0 
0 0 0 0 0 0 0 0 0 
0 0 0 0 0 0 0 0 0 
0 0 0 0 0 0 0 0 0 
0 0 0 0 0 0 0 0 0 
0 0 0 0 0 0 0 0 0 
0 0 0 0 0 0 0 0 0 
0 0 0 0 0 0 0 0 0 
0 0 0 0 0 0 0 0 0 
0 0 0 0 0 0 0 0 0 
0 1.54155e-09 0 0 0 7.52203e-11 0 0 0 
0 0 0 0 0 0 0 2.45714e-09 5.09729e-10 
0 0 0 0 0 0 0 0 0 
0 0 0 0 0 0 0 0 0 
0 0 0 0 0 0 0 0 0 
0 0 0 0 0 0 0 0 0 
0 0 0 0 0 0 0 0 0 
0 0 0 0 0 0 0 0 0 
0 0 0 0 0 0 0 0 0 
0 0 0 0 0 0 0 0 0 
0 0 0 0 0 0 0 0 1.32429e-09 
0 0 0 0 0 0 0 0 0 
0 0 0 0 0 0 0 0 0 
0 0 0 0 0 0 0 0 0 
0 0 0 0 0 0 0 0 0 
0 0 0 0 0 0 0 0 0 
0 0 0 0 0 0 0 0 0 
0 0 0 0 0 0 0 0 0 
0 0 0 0 0 0 0 0 0 
0 0 0 0 0 0 0 0 0 
0 0 0 0 0 0 0 0 0 
0 0 0 0 0 0 0 0 0 
0 0 0 7.92578e-07 6.01176e-09 2.50605e-09 0 1.20093e-09 0 
0 0 0 0 0 0 1.95414e-09 1.13582e-09 6.44922e-07 
1.56695e-09 0 0 0 0 0 0 0 0 
0 0 0 0 0 0 0 0 0 
0 0 0 0 0 0 0 0 0 
0 0 0 0 0 0 0 0 0 
0 0 0 0 0 0 0 0 0 
0 0 0 0 0 0 0 0 0 
0 0 0 0 0 0 0 0 0 
0 0 0 0 5.14899e-10 0 0 0 0 
0 0 0 1.35799e-09 0 0 0 0 0 
3.19036e-09 0 0 8.33323e-07 0 6.50646e-09 0 0 0 
8.06786e-10 0 0 0 0 0 0 0 0 
0 0 1.63867e-09 1.34548e-09 8.19332e-10 0 0 0 0 
0 0 0 0 0 0 0 0 0 
0 1.70294e-09 0 0 0 0 0 0 0 
0 0 0 0 0 0 0 0 0 
0 0 0 0 0 0 0 0 0 
0 0 0 0 0 0 0 0 0 
0 0 0 0 0 0 0 0 0 
0 0 0 0 4.33582e-09 6.46765e-07 0 0 0 
0 0 0 1.53291e-09 0 7.62565e-09 0 0 1.29685e-09 
0 0 0 0 0 0 0 0 1.47577e-09 
0 0 0 0 0 0 0 0 0 
0 0 0 0 0 0 0 0 0 
0 0 0 0 0 0 1.12728e-09 0 0 
6.46305e-07 1.40103e-09 0 8.75288e-10 0 0 0 0 0 
0 0 0 0 0 0 0 0 0 
0 0 0 0 0 0 0 0 0 
0 0 0 0 0 0 0 0 0 
0 0 0 0 0 0 0 0 0 
0 0 0 0 0 0 0 0 0 
0 0 0 0 9.46275e-10 3.9156e-09 0 4.36779e-09 2.69968e-09 
0 0 0 0 0 0 7.98473e-07 0 0 
1.00635e-09 0 0 0 0 0 0 0 0 
0 0 1.28212e-09 0 0 0 0 0 0 
0 0 0 0 9.46335e-10 0 0 0 0 
0 2.20339e-11 0 0 4.31278e-10 0 0 0 0 
0 0 0 0 0 0 0 0 0 
0 0 0 0 0 0 0 0 0 
0 0 0 0 0 0 0 0 0 
0 0 0 0 0 0 0 0 0 
0 0 0 0 0 0 1.9741e-09 0 0 
6.02181e-10 0 0 4.92882e-10 0 0 2.32247e-09 0 0 
0 0 7.78444e-10 0 0 7.41859e-07 1.21025e-08 0 0 
0 0 6.89562e-07 0 8.29442e-10 9.02123e-10 0 0 0 
0 0 0 0 1.49818e-09 0 1.86916e-09 0 1.26769e-09 
0 2.22268e-09 0 0 0 0 0 0 0 
0 0 0 4.2272e-10 0 0 0 0 0 
0 0 0 0 0 0 0 0 0 
0 0 0 0 0 0 0 0 0 
0 0 0 0 0 0 0 0 0 
0 0 0 0 0 0 0 0 0 
0 0 0 0 0 0 1.06374e-09 5.00529e-09 0 
1.96854e-09 0 0 0 0 0 0 0 1.93726e-09 
1.4493e-09 0 0 0 1.23405e-09 1.71482e-09 0 0 2.2851e-09 
0 0 0 0 0 0 6.65664e-10 0 0 
0 0 0 0 0 0 0 7.19066e-07 0 
7.19236e-07 8.08997e-09 0 0 0 0 0 0 6.67428e-07 
0 0 0 0 0 0 0 0 0 
0 0 0 0 0 0 0 0 0 
0 0 0 0 0 0 0 0 0 
0 0 0 0 0 0 0 0 0 
0 0 0 0 0 0 0 0 0 
0 0 0 0 0 3.54817e-09 0 1.47682e-09 0 
0 0 0 0 0 0 0 0 1.889e-09 
0 0 0 0 0 0 0 0 0 
0 0 0 0 0 0 1.83619e-09 0 0 
0 0 0 0 0 0 0 0 0 
0 0 2.24618e-09 0 0 0 0 9.16762e-10 0 
0 0 1.97348e-09 2.04023e-09 1.3953e-09 0 0 0 0 
0 0 0 0 0 0 0 0 0 
0 0 0 0 0 0 0 0 0 
0 0 0 0 0 0 0 0 0 
0 0 0 0 0 0 0 0 0 
0 0 0 0 0 0 0 1.63851e-09 1.52155e-09 
3.91191e-09 6.49471e-07 0 0 0 0 0 0 0 
0 0 0 0 6.49834e-07 0 0 0 0 
0 8.98373e-07 9.15231e-07 0 1.98568e-09 7.20239e-07 0 0 0 
0 0 0 0 0 0 0 1.9237e-09 0 
0 1.57707e-09 0 0 0 1.17005e-09 0 1.83035e-09 0 
1.82769e-09 0 8.65165e-10 1.3821e-09 1.05823e-09 0 0 0 0 
0 0 0 0 0 0 0 0 0 
0 0 0 0 0 0 0 0 0 
0 0 0 0 0 0 0 0 0 
0 0 0 0 0 0 0 0 0 
0 0 0 7.7418e-10 1.98628e-09 4.10605e-09 6.4692e-07 5.27913e-09 0 
0 2.70481e-09 3.71625e-09 0 0 0 0 0 0 
0 0 0 0 0 0 0 0 1.52679e-09 
0 0 0 0 0 0 1.77107e-09 0 1.05925e-09 
0 0 1.11008e-09 0 0 0 0 0 0 
0 0 0 0 0 0 1.94291e-10 0 0 
0 6.68568e-07 9.66902e-10 0 0 0 0 0 0 
0 0 0 0 0 0 0 1.55213e-09 0 
0 0 0 0 0 0 0 0 0 
0 0 0 0 0 0 0 0 0 
0 0 0 0 0 0 0 0 0 
0 0 0 0 0 1.04172e-09 0 0 5.12088e-09 
2.07557e-09 0 1.32029e-09 0 1.58041e-09 0 0 0 0 
0 8.17355e-10 0 0 0 0 0 0 0 
1.41552e-09 0 0 0 0 0 0 3.11085e-09 0 
1.4742e-09 0 0 0 0 0 0 0 0 
0 0 8.21454e-10 0 0 1.79128e-09 1.61878e-10 0 0 
0 0 0 0 7.36896e-10 0 0 0 1.88147e-09 
0 0 0 0 0 0 1.2658e-09 4.97527e-09 0 
0 0 0 0 0 0 0 0 0 
0 0 0 0 0 0 0 0 0 
0 0 0 0 0 0 0 0 0 
0 0 0 0 0 0 0 0 0 
0 0 0 0 0 0 0 0 0 
0 0 0 0 0 0 0 0 0 
0 0 0 0 0 1.8984e-09 0 0 2.97137e-10 
0 5.95154e-10 0 0 0 0 0 0 0 
0 0 0 0 0 0 0 4.44898e-09 0 
0 0 0 0 0 1.48074e-09 0 0 0 
0 0 0 0 0 0 0 0 0 
7.18952e-07 0 1.90707e-09 1.65419e-09 0 0 0 0 0 
0 0 0 0 0 0 0 0 0 
0 0 0 0 0 0 0 0 0 
0 0 0 0 0 1.41767e-09 0 0 0 
0 0 0 0 0 0 0 1.81083e-09 0 
0 0 6.77576e-10 4.35487e-10 0 0 9.23284e-10 0 0 
2.80039e-10 0 0 0 1.7471e-09 0 0 8.76598e-07 8.74036e-07 
0 0 0 0 0 0 0 0 5.35053e-10 
0 0 0 0 0 0 0 0 6.46665e-07 
0 0 0 1.99148e-10 0 0 0 0 0 
0 6.55001e-07 0 0 0 0 0 0 2.97596e-09 
5.77697e-09 0 0 0 0 0 0 0 0 
0 0 0 0 0 0 0 0 0 
0 0 0 0 0 0 0 0 0 
7.23321e-10 0 0 0 0 0 0 1.06238e-09 0 
0 0 0 0 0 0 0 0 0 
1.14462e-09 0 0 0 0 6.58364e-10 0 0 0 
0 0 0 0 0 1.57433e-09 0 0 3.4414e-09 
0 0 2.37732e-09 2.00806e-10 0 0 6.45837e-07 1.93001e-09 0 
1.02048e-09 0 0 0 0 0 0 2.86836e-09 0 
0 0 0 0 0 0 4.46815e-09 0 0 
0 0 1.32308e-09 1.10812e-10 3.97704e-09 0 1.10949e-09 0 1.31127e-09 
1.54973e-09 0 7.25838e-07 0 0 0 0 0 0 
0 0 0 0 0 0 0 0 0 
0 0 0 0 0 0 0 0 0 
0 0 0 9.02127e-10 1.08547e-09 6.72098e-11 0 0 0 
0 0 0 0 0 0 0 0 0 
0 0 3.0983e-09 0 6.96827e-10 0 1.10227e-09 1.68564e-10 0 
0 0 0 0 0 0 0 1.93813e-09 0 
4.27706e-09 0 0 0 2.33136e-09 0 0 2.6768e-09 7.52049e-10 
0 0 1.30183e-09 0 0 0 0 5.75001e-10 0 
0 0 1.66785e-09 8.40748e-10 0 0 9.0114e-09 6.54645e-07 4.85053e-09 
0 0 0 0 0 0 0 5.14341e-10 0 
0 0 3.78771e-09 0 0 5.57986e-10 0 0 0 
0 0 0 0 0 0 0 0 0 
0 0 0 0 0 0 0 0 0 
0 0 0 0 0 0 0 0 0 
7.18769e-07 0 0 0 0 0 0 0 0 
0 0 4.28706e-09 6.47007e-07 0 0 1.70673e-09 3.60419e-09 6.98975e-07 
0 2.4889e-09 1.56508e-09 0 0 0 0 1.17596e-09 0 
0 0 0 0 1.44483e-09 0 0 0 0 
0 0 0 0 0 0 0 0 4.76769e-10 
0 0 1.24226e-09 0 1.89095e-09 0 0 0 2.98646e-09 
0 0 2.92799e-09 0 0 0 0 1.31158e-09 0 
0 0 0 2.81782e-09 0 0 2.44164e-09 0 0 
0 0 0 0 0 0 0 0 0 
0 0 0 0 0 0 0 0 0 
0 0 0 6.59792e-07 0 0 0 0 7.75558e-07 
0 0 0 0 0 0 0 0 0 
0 0 0 0 0 0 0 0 0 
0 0 7.06224e-07 0 0 3.95782e-09 0 0 0 
0 1.03568e-09 2.79143e-09 0 0 7.17718e-10 0 0 0 
1.33708e-09 0 0 0 0 0 0 0 0 
0 1.17518e-09 0 0 0 0 0 0 0 
0 0 0 0 0 6.56197e-07 0 0 1.41568e-09 
0 5.52066e-10 0 0 6.35992e-10 9.7583e-10 0 1.47367e-09 0 
0 0 0 0 0 0 0 0 0 
0 0 0 0 0 0 0 0 0 
0 0 1.32496e-09 3.92746e-09 0 0 0 0 0 
0 0 3.54014e-09 2.39883e-09 0 0 9.71039e-10 0 0 
0 0 0 0 1.03824e-09 0 0 0 0 
1.58718e-09 0 0 0 0 0 2.12173e-09 6.0293e-09 3.54739e-09 
0 5.96117e-09 7.04345e-07 0 0 1.79507e-10 0 0 0 
0 0 0 0 3.70089e-09 2.85458e-09 4.6826e-09 1.69774e-09 0 
0 0 5.18815e-10 0 0 0 2.05965e-09 0 0 
0 0 2.59048e-09 0 0 0 0 0 0 
0 0 0 0 0 6.73375e-07 0 0 0 
2.5242e-10 0 0 0 0 0 0 0 0 
0 0 0 0 0 0 0 0 0 
0 0 0 0 0 0 1.36815e-09 0 7.11552e-07 
9.18188e-09 1.09533e-09 7.43667e-07 4.76814e-09 2.51807e-09 0 0 0 0 
0 8.72201e-10 0 0 0 0 0 0 0 
0 1.11559e-09 1.45353e-09 0 0 0 0 0 0 
0 0 0 7.36764e-09 0 0 0 0 0 
0 0 0 0 1.37499e-09 0 6.59219e-07 4.6289e-09 2.57385e-09 
0 0 0 0 0 0 6.50273e-07 2.28876e-09 1.59448e-09 
0 0 6.869e-09 3.69346e-09 2.63726e-09 0 0 0 7.97921e-10 
0 0 0 0 0 0 0 0 0 
0 0 0 0 0 0 0 0 0 
0 0 0 0 0 0 0 0 0 
0 0 0 0 0 0 2.06523e-09 2.21215e-09 0 
0 0 0 0 0 6.21658e-10 1.20495e-09 0 2.82829e-09 
0 0 2.86177e-09 1.73757e-09 0 0 0 0 0 
0 0 3.21362e-10 0 0 0 0 0 0 
7.02393e-07 0 0 7.23902e-07 4.5957e-09 0 0 0 0 
0 0 0 0 0 0 0 2.62754e-09 0 
0 0 0 1.63963e-09 1.28619e-09 0 4.37313e-09 0 3.70158e-09 
0 0 4.12056e-09 6.50559e-07 0 0 1.13561e-09 0 9.696e-10 
0 0 0 0 2.11781e-09 0 0 0 0 
0 0 4.05858e-10 0 0 0 0 0 0 
0 0 0 0 0 0 0 0 0 
0 0 0 0 0 0 0 0 5.90906e-10 
0 0 0 0 0 0 1.91521e-09 3.19452e-09 0 
0 8.7204e-07 0 0 0 0 0 0 0 
0 0 0 0 0 0 0 7.21099e-07 0 
5.74399e-09 0 0 0 0 0 0 0 0 
0 0 0 2.59747e-10 1.57945e-09 2.52639e-09 2.30746e-09 3.73054e-09 0 
0 0 0 0 0 0 0 0 0 
0 0 0 3.26574e-11 0 0 0 0 0 
0 0 0 0 0 0 0 6.75916e-07 4.41816e-09 
0 0 0 0 0 0 0 0 0 
0 0 0 0 0 0 0 0 0 
0 0 0 0 0 0 0 0 1.67219e-10 
0 1.09532e-09 1.00222e-09 0 1.68126e-09 0 0 2.04098e-10 0 
3.82886e-09 0 8.85274e-07 0 0 0 0 0 0 
0 0 0 0 0 2.8917e-09 0 5.83782e-09 0 
0 0 3.301e-09 3.02798e-09 0 0 0 0 1.3445e-09 
0 0 0 0 0 0 0 5.20869e-07 7.30384e-10 
0 3.31113e-09 0 0 0 0 2.42253e-09 3.66472e-09 0 
0 0 1.16867e-09 1.80282e-09 0 0 0 0 0 
0 0 0 0 0 0 1.96557e-09 0 0 
0 0 0 0 0 0 0 0 0 
0 0 0 0 0 0 0 0 0 
0 0 0 0 0 0 0 0 0 
0 0 0 0 0 0 7.21855e-10 0 0 
0 0 0 0 0 5.57955e-09 6.8481e-07 4.49849e-09 0 
0 0 0 0 7.20692e-10 0 0 0 0 
0 0 0 0 0 0 0 0 0 
0 0 0 0 0 0 0 0 5.66613e-09 
0 0 0 0 7.48661e-07 0 8.05019e-07 0 0 
0 0 0 0 0 0 0 0 0 
0 0 0 0 0 3.60121e-09 6.55888e-07 0 0 
0 0 0 0 0 0 0 0 0 
0 0 0 0 0 0 0 0 0 
0 0 0 0 0 0 0 0 0 
0 0 0 0 0 0 0 0 0 
2.32863e-09 1.37881e-09 0 0 0 0 1.41473e-09 4.29285e-09 7.1054e-10 
0 1.8105e-09 0 0 0 0 0 0 0 
8.99528e-07 9.13551e-07 0 4.02118e-09 3.80615e-10 6.62628e-11 0 0 4.65066e-09 
0 0 0 0 0 0 0 0 0 
6.59156e-10 1.38516e-09 1.93623e-09 0 0 0 0 3.77349e-09 0 
1.90087e-09 0 0 0 0 9.49992e-10 7.59422e-10 0 0 
0 0 0 0 0 0 2.20418e-09 2.48015e-09 0 
2.63479e-09 0 0 0 0 0 0 0 0 
0 0 0 0 0 0 0 0 0 
0 0 0 0 0 0 0 0 0 
0 0 0 0 0 0 0 0 0 
0 0 0 2.33255e-09 0 0 0 0 0 
0 8.65349e-10 0 0 0 0 0 0 3.06738e-09 
0 0 0 0 4.32723e-09 0 0 0 3.39567e-09 
0 0 1.99539e-09 0 3.75849e-09 0 0 0 0 
0 2.63403e-09 0 0 0 0 0 0 3.39616e-09 
8.77626e-07 0 0 7.35805e-07 0 1.31056e-09 1.61378e-09 0 0 
0 0 0 0 0 0 0 0 0 
0 0 0 0 0 0 0 0 0 
0 0 0 0 0 0 0 0 0 
0 0 0 0 0 0 0 0 0 
0 0 0 0 0 0 0 0 0 
0 0 0 3.56125e-09 7.14482e-07 0 9.2793e-09 0 0 
4.07985e-09 3.472e-09 0 2.26155e-09 0 0 0 0 1.10192e-09 
0 0 0 0 0 0 0 0 0 
0 7.62192e-07 0 0 0 6.58803e-07 0 1.01669e-09 7.12797e-10 
0 7.8308e-10 0 0 1.53612e-09 0 0 0 0 
8.32086e-07 0 0 0 2.81919e-09 0 0 0 0 
0 0 0 0 0 0 0 0 0 
0 0 0 5.502e-10 4.72254e-10 0 0 0 0 
0 0 0 0 0 0 0 0 0 
0 0 0 0 0 0 0 0 0 
0 0 0 0 0 0 0 0 0 
0 0 7.64086e-10 0 0 0 0 7.79248e-07 4.45657e-09 
0 0 0 6.5416e-07 0 0 1.42984e-09 5.4831e-10 0 
0 1.9086e-09 0 0 7.12503e-07 0 0 0 0 
0 0 1.00647e-08 0 0 0 4.20091e-09 0 1.39083e-09 
0 0 0 0 0 0 7.01633e-10 0 0 
0 0 1.06751e-09 0 7.48093e-07 6.84029e-09 0 0 0 
0 0 0 0 0 0 0 0 0 
0 0 0 0 0 0 0 0 0 
0 0 0 0 0 0 0 0 0 
0 0 0 0 0 0 0 0 0 
0 0 0 0 0 0 0 0 0 
0 0 0 0 0 0 0 0 5.20516e-09 
3.50069e-09 0 0 3.98936e-09 4.61077e-09 0 1.57017e-09 0 0 
0 0 0 0 0 0 0 1.12782e-09 8.44316e-09 
0 8.81098e-07 0 8.21353e-07 2.4301e-09 4.1038e-09 0 0 3.72869e-09 
0 0 0 0 0 0 0 0 0 
0 0 2.33887e-09 0 0 0 0 0 0 
3.45324e-10 0 0 0 0 0 0 0 0 
0 0 0 0 0 0 0 0 0 
0 0 0 0 0 0 0 0 0 
0 0 0 0 0 0 0 0 0 
0 0 0 0 0 0 8.97758e-10 0 0 
0 0 0 0 0 0 1.72356e-09 2.35158e-09 1.01796e-08 
7.33174e-07 0 0 1.31354e-09 0 0 0 1.51469e-09 0 
0 0 0 0 0 0 0 8.7837e-09 0 
0 8.59875e-07 0 0 0 0 0 0 0 
0 0 0 0 0 6.67393e-07 0 3.39264e-09 0 
0 1.52442e-09 0 0 4.30726e-09 0 0 0 0 
0 0 0 0 0 0 0 0 0 
0 0 5.89317e-10 0 0 0 0 0 0 
0 0 0 0 0 0 0 0 0 
0 0 0 0 0 0 0 0 0 
0 0 0 0 0 0 0 6.44196e-07 0 
0 0 0 0 0 0 0 0 0 
0 0 1.97566e-09 0 2.06245e-09 0 2.37676e-09 1.49761e-09 0 
0 0 0 7.11924e-10 0 0 0 0 0 
7.54916e-07 0 0 3.16119e-11 0 0 0 0 0 
0 0 0 1.27599e-09 0 0 4.90328e-09 0 3.09812e-09 
0 0 0 0 0 0 2.46444e-09 0 1.09598e-09 
1.06887e-09 0 0 0 0 0 0 0 0 
0 0 0 0 0 0 0 0 0 
5.69805e-10 0 0 0 0 0 0 0 0 
0 0 0 0 0 0 0 0 0 
0 0 0 0 0 0 2.4475e-09 1.96689e-09 0 
0 0 0 0 0 0 0 0 0 
0 3.18395e-09 0 0 0 0 0 0 0 
0 0 0 0 6.51169e-10 0 0 3.33489e-09 0 
0 0 0 0 0 0 6.34098e-10 9.48996e-10 0 
0 0 0 0 0 0 0 0 0 
4.86204e-09 0 0 8.46196e-07 0 8.42077e-07 8.86693e-09 0 6.86181e-10 
0 0 0 0 0 0 0 0 2.16382e-11 
0 0 0 0 3.36021e-09 0 0 0 0 
2.23962e-09 1.13962e-09 0 0 0 0 0 0 0 
0 0 0 0 0 0 0 0 0 
0 0 0 0 0 0 0 0 0 
0 0 0 0 1.45374e-09 3.04289e-09 0 0 0 
0 0 0 0 0 0 0 0 0 
0 0 0 0 3.06167e-10 0 0 0 0 
1.55705e-09 0 5.11104e-09 0 0 4.20461e-09 0 0 0 
0 0 0 0 5.51231e-10 0 0 0 0 
6.75949e-07 2.91003e-09 0 0 0 8.80362e-07 0 3.69541e-09 2.59959e-09 
0 0 2.08016e-10 0 0 0 0 0 0 
3.91604e-10 0 1.39416e-09 0 4.57664e-09 0 0 0 7.17175e-07 
2.23946e-09 0 0 0 0 0 0 0 0 
0 0 0 0 0 0 0 0 0 
0 0 0 0 0 0 6.21136e-11 0 0 
0 0 7.95869e-10 0 0 0 0 6.44333e-07 0 
0 1.27129e-09 0 0 0 0 0 0 0 
0 0 0 0 6.48441e-07 0 0 0 0 
0 0 0 0 9.07062e-07 8.93436e-07 0 0 0 
0 0 0 0 0 0 0 0 0 
2.63477e-09 8.86424e-09 0 0 0 1.30588e-09 0 0 1.62333e-09 
0 0 0 2.00434e-10 0 0 0 0 0 
1.61018e-09 0 0 0 0 1.22408e-08 6.99839e-07 0 0 
0 0 0 0 0 0 0 0 0 
0 0 0 0 0 0 0 0 0 
0 0 0 0 0 0 0 0 0 
0 0 0 0 0 0 0 1.36283e-09 1.95287e-09 
0 0 0 0 0 0 0 0 0 
2.52383e-10 0 0 0 2.8383e-09 0 0 2.40399e-09 0 
0 0 0 0 0 1.13449e-08 0 0 0 
0 0 0 0 0 0 0 0 0 
0 0 0 0 0 0 0 0 0 
0 0 0 0 0 0 0 0 0 
0 0 1.64438e-09 0 0 0 0 2.00026e-09 0 
5.17622e-09 0 7.11432e-07 0 0 0 0 0 0 
0 0 0 0 0 0 0 0 0 
0 0 0 0 0 0 0 0 0 
1.92133e-10 4.64317e-10 0 0 6.61622e-10 0 0 0 0 
1.41464e-09 0 0 0 0 0 0 0 0 
0 0 0 0 0 2.60012e-09 0 0 6.93082e-10 
0 0 0 0 9.94944e-10 0 0 0 3.62639e-09 
1.99382e-10 0 0 0 0 0 0 0 0 
0 0 0 0 0 0 1.87648e-09 0 3.07877e-09 
2.5863e-09 0 0 0 0 0 0 0 0 
0 0 0 0 0 0 6.87734e-07 1.16708e-09 1.47874e-09 
0 0 3.5303e-09 2.45878e-09 0 0 0 0 0 
0 0 0 0 0 0 0 0 0 
0 0 0 0 0 0 0 0 0 
0 0 0 0 0 0 0 0 0 
0 0 0 4.86266e-10 0 0 0 0 0 
0 0 0 9.89796e-10 0 0 0 1.85112e-09 1.47701e-09 
0 0 0 0 1.98214e-09 8.67215e-09 6.77651e-07 0 0 
1.55212e-09 0 8.51885e-10 0 0 0 0 0 0 
0 0 0 0 0 0 9.92094e-10 0 0 
0 0 0 0 0 0 4.02904e-09 3.10933e-09 0 
0 0 0 6.54364e-07 0 1.8285e-09 7.3509e-10 0 0 
3.59675e-09 0 0 0 0 2.60374e-09 0 0 0 
0 0 0 0 0 0 0 0 0 
0 0 0 0 0 0 0 0 0 
0 0 0 1.46121e-09 0 1.99482e-09 0 0 0 
1.20322e-09 0 0 0 0 0 0 0 0 
0 0 0 0 0 0 6.48138e-07 0 0 
0 0 0 0 0 0 0 0 3.33411e-09 
0 0 9.71997e-10 0 0 0 0 0 0 
0 0 0 0 0 0 0 0 0 
0 0 0 0 0 2.66353e-09 6.0616e-09 6.49725e-07 0 
0 0 0 0 8.58075e-09 3.94035e-09 0 0 0 
0 1.46125e-09 0 0 0 0 0 9.71102e-10 1.53198e-09 
0 3.38411e-10 0 0 0 0 0 0 0 
0 0 0 0 0 0 0 0 0 
0 0 0 0 0 9.02097e-10 6.44576e-07 4.61388e-09 3.63036e-09 
0 0 0 0 0 0 0 0 0 
0 0 0 0 0 9.63227e-10 1.85843e-09 0 0 
0 0 0 0 0 0 8.44063e-10 1.31938e-09 0 
2.72135e-09 0 0 0 0 0 0 6.77658e-07 0 
0 8.36483e-10 0 0 0 0 0 0 0 
0 0 0 0 4.15715e-09 0 0 2.93365e-09 0 
0 0 0 8.21357e-10 0 0 0 0 0 
0 0 0 3.64305e-09 0 0 0 6.60438e-07 0 
0 0 4.96162e-10 0 0 0 0 0 0 
0 0 0 0 0 0 0 0 0 
0 0 0 0 1.10799e-09 0 0 0 2.4042e-09 
0 0 0 0 0 0 0 0 0 
0 5.0878e-10 0 0 0 0 0 0 6.75665e-10 
0 8.62493e-10 0 0 0 0 0 0 4.05302e-10 
0 0 0 0 4.65955e-10 0 2.48227e-09 0 0 
0 0 0 0 0 0 0 0 0 
0 0 0 0 0 6.4861e-07 4.43236e-09 4.41006e-09 0 
0 0 0 0 0 1.08767e-09 0 0 0 
3.30485e-09 0 6.57122e-07 3.19425e-09 0 1.98591e-09 0 1.73382e-09 0 
0 0 0 0 0 0 0 0 0 
0 0 0 0 0 0 0 0 0 
0 0 0 0 0 0 0 0 0 
1.53314e-09 6.51504e-10 0 0 0 0 0 0 0 
0 0 0 0 7.99012e-10 0 0 0 0 
0 0 1.17085e-09 0 0 0 0 6.41848e-10 0 
0 0 0 1.44639e-09 0 0 0 8.18403e-10 3.84205e-09 
0 0 0 9.85838e-07 9.13916e-07 0 0 4.04568e-10 0 
0 0 0 0 0 0 0 0 0 
8.93058e-10 9.17216e-10 0 0 0 0 7.8358e-10 0 0 
0 0 0 0 0 0 0 0 0 
0 0 0 0 0 0 0 0 0 
0 0 0 0 0 0 0 0 0 
0 0 0 0 0 0 0 0 0 
1.13331e-09 0 0 0 0 0 0 0 0 
0 0 0 0 0 0 1.0657e-09 1.28262e-09 0 
0 0 0 0 0 0 0 5.6135e-10 0 
0 0 0 0 0 0 0 0 0 
0 0 0 8.31271e-07 0 0 6.80095e-09 0 0 
3.82739e-10 3.39976e-10 0 0 0 0 0 7.84923e-10 8.66206e-10 
0 0 0 0 0 0 0 0 0 
3.02101e-09 9.6449e-10 1.78328e-09 0 0 0 9.80721e-10 0 0 
0 0 1.82504e-09 0 0 0 0 0 0 
0 0 0 0 0 0 0 0 0 
0 0 0 0 0 0 0 0 5.72383e-10 
0 0 0 0 0 0 0 0 0 
0 0 0 0 0 0 1.90498e-09 0 0 
0 0 5.18865e-10 0 0 0 4.23062e-09 6.47213e-07 0 
0 0 0 0 1.5945e-09 0 0 0 0 
6.70673e-07 0 3.50598e-09 0 0 0 0 0 0 
0 0 0 0 0 0 0 0 0 
0 0 0 0 0 0 0 0 4.62246e-09 
6.66127e-07 0 0 1.48927e-09 1.1575e-09 0 0 0 0 
1.5718e-09 6.56933e-07 0 0 0 0 0 0 0 
0 0 0 0 0 0 0 0 0 
0 0 0 0 0 0 0 0 1.56021e-10 
0 0 0 5.87726e-09 0 0 0 0 0 
0 0 0 0 0 5.88926e-09 6.78944e-07 0 0 
0 0 0 1.19803e-09 0 0 0 3.41329e-09 0 
2.658e-09 0 0 0 0 0 0 1.73654e-09 0 
0 6.18748e-09 0 0 0 0 0 3.55064e-09 2.64302e-10 
0 6.33547e-10 0 0 0 0 0 0 0 
0 0 0 0 0 0 0 0 0 
0 0 0 2.54265e-09 0 0 0 0 2.2587e-09 
0 1.13868e-08 0 0 0 0 0 0 0 
0 0 0 0 0 0 0 0 0 
0 0 0 0 0 0 0 0 0 
0 0 0 6.44153e-07 0 0 0 0 0 
0 0 0 0 6.79444e-07 0 0 0 5.47247e-09 
0 0 0 6.46631e-10 0 0 0 3.54318e-09 0 
1.95201e-09 2.07271e-09 0 0 0 0 1.1443e-09 1.17505e-09 6.56536e-07 
4.60886e-09 3.31244e-09 0 0 0 0 0 1.98792e-09 0 
0 0 0 0 0 0 7.09033e-10 0 0 
0 0 0 0 0 0 0 0 1.61683e-09 
0 0 0 0 0 2.09453e-09 0 0 5.29552e-09 
0 0 2.40821e-09 0 0 0 0 0 0 
0 0 0 0 0 0 0 0 0 
0 0 0 0 0 0 0 0 0 
0 0 0 0 2.27476e-09 0 0 0 1.27135e-09 
0 0 0 0 0 0 0 0 0 
0 1.98461e-09 0 1.61744e-09 0 0 3.70786e-09 0 0 
2.20252e-09 0 0 9.48355e-10 0 0 0 0 0 
1.01363e-09 2.46661e-09 1.2755e-09 0 0 0 0 0 0 
0 0 1.51522e-09 6.68053e-07 4.94341e-09 0 0 8.11224e-10 0 
0 0 0 0 0 0 0 0 0 
0 0 0 0 0 1.52515e-09 0 2.23558e-09 0 
6.52256e-07 0 0 0 2.18254e-09 1.06131e-09 0 0 0 
0 0 0 0 0 0 0 0 0 
0 0 0 0 0 0 0 0 0 
0 0 0 1.12573e-09 0 0 0 0 8.82233e-10 
0 0 0 2.67624e-09 0 0 0 0 1.90103e-09 
2.31621e-09 2.38108e-09 7.379e-07 3.47045e-09 0 0 0 6.63244e-07 2.39091e-09 
0 0 0 6.30177e-10 0 2.70231e-09 0 0 0 
9.49951e-10 1.97259e-09 0 2.2492e-10 0 0 0 0 0 
0 0 0 0 0 0 0 0 9.14417e-10 
0 0 0 0 0 0 0 0 0 
0 0 0 9.83209e-07 1.08407e-06 0 0 0 0 
0 0 0 0 0 0 0 0 0 
0 0 0 0 0 0 0 0 0 
0 0 0 0 0 0 0 0 0 
0 0 0 0 0 0 0 0 0 
0 7.3091e-10 0 0 0 7.08012e-07 2.23862e-09 0 1.71948e-09 
0 0 4.02347e-09 9.91761e-10 0 0 0 0 2.13521e-09 
2.14133e-09 0 0 0 0 6.71927e-07 2.08681e-09 1.23199e-09 1.575e-09 
0 0 0 0 0 0 0 0 0 
6.39651e-10 0 0 0 0 0 3.93798e-09 0 5.91117e-10 
0 0 0 0 0 0 0 0 0 
0 0 0 0 0 9.49387e-07 0 0 3.86307e-09 
1.76961e-09 0 0 0 0 8.82649e-10 0 0 7.66487e-07 
0 0 1.47971e-09 0 0 0 0 0 0 
0 0 0 0 0 0 0 0 0 
0 0 0 0 0 0 0 0 0 
0 0 0 0 0 0 1.35174e-09 0 1.03963e-09 
0 0 0 0 7.43708e-07 0 2.28293e-09 0 3.14194e-09 
0 0 0 4.01766e-09 0 0 0 0 0 
2.175e-09 0 1.52252e-10 0 0 0 0 0 0 
0 0 0 0 0 0 0 6.80354e-07 0 
0 1.87289e-09 4.15517e-10 0 0 0 0 0 0 
0 0 0 1.25755e-09 0 0 0 0 0 
2.25945e-09 3.54438e-09 0 0 0 0 0 0 0 
0 7.70183e-07 0 0 0 0 0 0 0 
0 0 0 0 0 0 0 0 0 
0 0 0 0 0 0 0 0 0 
0 0 0 0 0 6.51732e-09 6.95974e-07 3.31933e-09 0 
4.09651e-09 0 0 2.04868e-09 0 0 0 0 1.63038e-09 
0 0 3.69822e-09 6.64524e-07 9.92745e-10 1.06201e-09 0 1.62199e-09 0 
0 0 1.17242e-09 0 1.67173e-09 0 1.01612e-09 0 0 
0 0 2.21229e-09 7.63269e-07 8.16316e-09 0 0 0 0 
1.79893e-09 0 7.50337e-09 0 6.72334e-10 0 0 1.08571e-09 1.14452e-09 
0 0 1.16452e-09 0 0 0 0 4.30619e-09 1.16017e-09 
0 6.68313e-07 3.66284e-09 2.00335e-09 0 8.98784e-10 0 0 0 
0 0 0 3.22567e-09 0 0 0 0 0 
0 0 0 0 0 0 0 0 0 
0 0 0 0 0 0 0 0 0 
0 0 0 0 0 0 2.8112e-09 0 0 
0 0 0 3.80492e-10 0 0 8.47701e-10 0 2.61807e-09 
0 0 0 0 0 1.01156e-08 0 1.6569e-09 0 
6.72083e-07 0 2.41576e-09 0 0 2.96961e-09 0 0 0 
0 0 0 0 0 7.6619e-07 0 1.54113e-09 0 
0 0 0 4.35438e-09 0 0 2.53828e-09 1.33476e-09 0 
0 2.59172e-10 0 0 0 0 0 0 0 
0 2.64386e-09 0 1.5868e-09 0 0 0 0 0 
0 0 0 0 2.63025e-09 0 0 0 0 
0 0 0 0 0 0 0 0 0 
0 0 0 0 0 0 0 0 0 
0 0 0 0 0 0 0 0 0 
0 1.35834e-09 0 0 0 0 0 0 6.74702e-07 
0 0 1.96764e-09 2.10504e-09 9.99465e-10 0 0 3.95884e-09 0 
0 0 0 0 0 0 6.61956e-07 0 0 
0 0 0 1.53121e-09 0 0 0 0 0 
0 0 0 0 0 9.64082e-07 1.63008e-09 0 0 
0 0 3.08222e-09 0 6.55631e-07 0 0 0 0 
0 1.80076e-09 2.68435e-09 0 0 0 0 0 0 
0 0 4.87985e-09 0 0 0 0 7.50816e-10 0 
0 0 0 0 0 0 0 0 0 
0 0 0 0 0 0 0 0 0 
0 0 0 0 0 0 0 0 0 
0 0 0 0 0 0 0 0 0 
0 0 0 0 0 0 0 0 0 
0 7.30788e-10 0 1.39254e-09 0 0 0 0 0 
1.57511e-09 1.23758e-09 0 0 0 0 1.97421e-09 0 0 
0 0 0 0 0 0 0 0 0 
0 0 0 0 0 4.09315e-09 2.79545e-09 0 0 
0 0 0 0 0 0 9.1886e-10 0 0 
3.31165e-09 0 0 4.94432e-09 8.23358e-07 0 0 0 0 
0 0 0 0 0 0 0 0 0 
0 0 0 0 0 0 0 0 0 
0 0 0 0 0 0 0 0 0 
0 1.18723e-09 0 8.52673e-11 0 0 0 5.87087e-10 0 
0 0 0 2.42829e-09 0 0 0 0 0 
0 0 1.74374e-09 0 0 3.51144e-09 2.86166e-09 0 2.41951e-09 
0 1.61941e-09 1.35129e-09 0 0 0 0 0 0 
0 0 0 0 0 0 0 1.00379e-06 9.89842e-09 
0 0 0 0 2.12323e-09 0 0 0 2.62365e-09 
0 5.52559e-10 0 2.29793e-09 0 0 0 0 0 
0 0 3.70112e-09 0 9.82827e-07 0 0 0 0 
0 0 0 0 0 0 0 0 0 
0 0 0 0 0 0 0 0 0 
0 0 0 0 0 0 0 0 1.80271e-09 
6.50414e-09 0 1.30644e-09 0 0 0 0 0 6.5134e-07 
4.23606e-09 0 0 1.68032e-09 0 0 2.11925e-09 0 6.96509e-10 
0 0 0 0 0 1.06839e-09 0 6.72088e-07 0 
0 0 0 0 0 0 0 0 0 
5.96465e-10 0 0 0 2.76367e-09 0 0 0 9.42342e-07 
0 0 0 0 7.48194e-07 0 0 1.05947e-10 0 
0 0 0 0 0 0 0 1.84752e-09 0 
0 6.77656e-07 1.26104e-09 0 0 9.19335e-07 0 0 0 
1.20275e-09 0 0 0 0 0 0 0 0 
0 0 0 0 0 0 0 0 0 
0 0 0 0 0 0 0 0 0 
0 0 0 6.35939e-10 3.56501e-10 0 1.3031e-09 0 0 
2.71837e-09 2.17346e-09 0 1.17745e-09 0 0 0 0 0 
0 0 0 0 0 0 0 0 9.72368e-10 
0 1.32059e-09 2.49831e-09 0 0 2.49554e-09 0 0 0 
1.30795e-09 0 0 2.05773e-09 0 9.49592e-10 1.59687e-09 0 0 
6.26653e-09 0 0 9.5004e-07 0 1.3989e-09 0 3.86123e-09 0 
0 4.21971e-09 0 1.85594e-09 3.55994e-09 0 6.65621e-07 0 0 
1.87249e-09 0 4.01708e-09 1.33201e-09 3.70178e-09 0 0 0 0 
0 0 4.03973e-10 0 0 0 0 0 0 
0 0 0 0 0 0 0 0 0 
0 0 0 0 0 0 0 0 0 
0 5.4805e-09 6.77266e-07 5.72967e-09 0 7.25773e-10 0 0 0 
0 0 3.06445e-09 0 0 0 5.97025e-10 1.16032e-09 6.52071e-07 
0 1.43605e-09 0 0 0 0 0 0 0 
0 0 6.90863e-09 7.38533e-07 0 3.4192e-09 0 1.82052e-09 0 
0 1.69676e-09 0 1.59701e-09 0 0 0 0 0 
0 0 1.25707e-09 0 9.1422e-07 0 0 4.16239e-09 0 
6.97751e-07 0 0 6.86751e-07 4.61782e-09 0 0 4.7704e-09 3.07362e-09 
0 2.23938e-09 4.00263e-09 0 0 0 0 0 0 
0 4.49657e-10 0 0 0 0 0 0 0 
0 0 0 0 0 0 0 0 0 
0 0 0 0 0 0 3.17491e-10 0 0 
0 0 0 0 0 0 0 0 0 
0 0 0 0 0 0 0 0 0 
1.17472e-09 0 0 0 2.91202e-10 0 0 0 0 
1.12386e-09 0 0 0 0 0 7.6701e-07 0 5.40246e-10 
0 0 0 0 0 0 0 0 0 
0 0 0 0 0 0 0 7.40586e-10 0 
0 0 0 0 4.16329e-09 0 6.02467e-09 0 0 
0 0 0 0 0 5.11958e-09 4.57149e-09 0 0 
0 0 0 0 0 0 0 0 0 
0 0 0 0 0 0 0 0 0 
0 0 0 0 0 0 0 0 0 
0 0 0 0 0 3.20796e-09 0 6.36167e-10 0 
0 5.99431e-10 2.8596e-09 6.82519e-10 0 0 0 0 1.02961e-09 
1.40366e-10 0 0 0 0 0 0 0 0 
0 0 2.25254e-09 1.37325e-09 0 0 0 1.21668e-09 2.68721e-09 
2.96521e-09 0 0 0 6.80128e-07 0 0 0 0 
0 0 1.47624e-09 0 0 0 0 0 0 
0 0 7.38006e-10 0 0 0 0 6.2483e-09 0 
1.15666e-09 0 4.18288e-09 0 0 7.78867e-07 0 0 3.99026e-10 
0 0 0 0 0 0 0 0 0 
0 0 0 0 0 0 0 0 0 
0 0 0 0 0 0 0 0 0 
1.08511e-09 0 0 8.7594e-07 8.93453e-07 0 0 2.09701e-10 0 
0 0 0 6.16173e-09 0 0 0 0 0 
2.10201e-09 0 0 1.65498e-09 0 0 0 0 0 
0 0 0 0 0 0 0 8.78215e-07 1.33278e-09 
0 0 0 0 4.43697e-09 1.75813e-09 0 0 6.75066e-07 
0 1.35843e-09 0 0 6.60906e-07 0 0 0 0 
0 0 0 2.49934e-09 1.63706e-09 0 3.3284e-09 0 0 
0 0 6.84494e-07 0 0 0 0 7.67245e-07 0 
0 0 0 0 0 0 0 0 0 
0 0 0 0 0 0 0 0 0 
0 0 0 0 0 0 0 0 0 
0 1.44078e-09 0 0 0 0 5.65695e-09 0 0 
1.93089e-09 1.45746e-09 0 0 0 6.44778e-07 7.53172e-09 2.92495e-09 8.44978e-10 
0 8.49056e-10 0 1.7412e-09 6.51362e-07 2.53098e-09 1.66917e-09 0 0 
5.03412e-10 0 3.89527e-10 0 0 0 0 0 0 
0 0 0 0 4.83792e-09 0 0 0 8.35421e-10 
0 5.4834e-09 0 0 0 0 0 0 0 
1.72026e-09 0 6.59456e-07 0 0 0 2.21812e-09 2.0483e-10 0 
6.84026e-07 0 0 2.86492e-09 0 1.46379e-09 0 0 0 
0 0 0 0 0 0 0 0 0 
0 0 0 0 0 0 0 0 0 
0 0 0 0 0 0 0 0 0 
0 0 9.44675e-10 1.04829e-09 1.89577e-09 0 0 0 0 
0 0 1.3845e-09 6.24357e-10 0 0 0 0 1.74606e-09 
0 0 0 0 0 3.56582e-09 0 0 0 
0 7.53957e-10 0 0 0 0 0 9.92698e-07 1.15623e-06 
1.04959e-06 0 0 1.61346e-09 7.74663e-07 0 0 3.23918e-09 4.38373e-09 
0 0 3.23579e-09 0 0 0 0 0 0 
0 0 2.07817e-09 2.81802e-09 0 3.96953e-10 3.18897e-09 9.83956e-10 4.64564e-11 
1.48705e-09 0 0 0 0 7.90582e-10 0 1.43056e-09 7.2385e-10 
3.12435e-09 0 9.37337e-10 0 0 0 0 0 0 
0 0 0 0 0 0 0 0 0 
0 0 0 0 0 0 0 0 0 
0 0 0 0 0 5.47987e-09 0 0 7.00363e-09 
8.74961e-07 0 0 1.31502e-09 0 0 0 0 0 
0 0 0 0 0 1.17975e-09 1.93598e-09 0 0 
0 0 0 0 0 0 0 0 0 
1.78836e-09 0 0 0 0 0 5.46194e-09 7.35085e-07 0 
0 3.58706e-09 0 0 0 0 0 0 0 
0 3.90032e-10 0 0 0 0 0 0 6.62575e-07 
1.31017e-09 0 0 0 2.77786e-09 1.17264e-09 0 0 0 
0 0 0 0 0 0 0 0 0 
0 0 0 0 0 0 0 0 0 
0 0 0 0 0 0 0 0 0 
0 0 0 0 0 0 0 0 4.25891e-09 
0 8.65108e-07 0 0 0 0 0 1.21142e-09 0 
8.44459e-10 0 0 0 0 0 0 0 1.01591e-09 
0 0 0 0 0 0 0 0 0 
0 2.14988e-09 0 2.08981e-09 0 7.41195e-07 0 0 3.72523e-09 
0 0 0 0 3.5989e-10 0 0 0 0 
0 0 0 0 0 0 0 0 0 
0 0 0 0 0 2.103e-09 0 0 0 
0 3.90555e-10 0 0 0 0 0 0 0 
0 0 0 0 0 0 0 0 0 
0 0 0 0 0 0 0 0 0 
0 0 0 0 1.11576e-09 0 1.16839e-09 0 0 
0 0 1.7937e-08 0 2.51676e-09 0 0 0 0 
0 0 0 0 0 0 0 0 0 
0 0 0 1.56904e-09 0 0 0 2.27658e-09 0 
4.51742e-09 7.10154e-07 2.98122e-09 0 0 0 6.94331e-09 3.48975e-09 5.42721e-09 
0 0 0 0 8.65327e-07 0 0 0 0 
0 0 0 0 0 0 0 2.84002e-10 0 
1.08278e-09 0 1.45295e-09 0 0 1.85924e-09 2.5658e-09 0 1.08012e-09 
1.20776e-09 3.63927e-10 0 0 0 0 0 0 0 
0 0 0 0 0 0 0 0 0 
0 0 0 0 0 0 0 0 0 
0 0 0 0 0 0 0 0 0 
0 0 1.68832e-09 0 0 0 5.08224e-10 0 0 
0 0 0 0 0 0 0 0 0 
0 0 0 0 0 2.90435e-09 6.46967e-07 5.40392e-09 1.35804e-09 
0 3.67724e-09 0 0 0 1.86311e-09 0 2.30136e-09 0 
0 0 0 0 2.48798e-09 8.61562e-07 0 3.64009e-09 1.61211e-09 
0 0 0 0 0 0 0 0 0 
0 0 0 0 3.90695e-10 5.80569e-10 0 0 2.30163e-09 
0 0 0 0 0 0 0 0 0 
0 0 0 0 0 0 0 0 0 
0 0 0 0 0 0 0 0 0 
0 0 0 0 0 0 0 3.91599e-09 0 
0 1.57409e-09 0 9.12825e-10 0 0 0 0 1.32282e-09 
0 0 0 0 0 0 0 0 0 
0 0 0 0 0 0 0 3.11896e-09 0 
0 0 0 2.06835e-09 0 0 0 0 0 
0 0 0 0 0 0 0 0 0 
0 0 0 0 0 0 0 0 0 
0 0 0 0 0 0 1.41656e-09 0 6.52348e-07 
0 1.6729e-09 0 0 0 0 0 0 0 
0 0 0 0 0 0 0 0 0 
0 0 0 0 0 0 0 0 0 
0 0 0 0 0 0 0 0 6.4428e-07 
0 0 1.06232e-09 0 2.0463e-09 3.48046e-09 0 3.87208e-10 1.00693e-09 
1.02741e-09 0 0 0 0 0 0 0 0 
0 0 0 0 0 0 0 0 6.78674e-10 
0 0 0 0 7.72851e-10 0 0 7.15727e-10 0 
0 0 0 0 0 1.29954e-09 0 4.91621e-09 0 
2.07868e-09 0 0 0 4.10888e-09 0 8.24917e-10 6.79517e-10 0 
0 0 0 0 0 0 0 0 3.45285e-09 
1.89765e-09 0 0 0 0 1.58671e-09 0 0 0 
0 0 0 0 0 0 0 0 0 
0 0 0 0 0 0 0 0 0 
0 0 0 0 0 0 0 0 2.24893e-09 
1.40605e-09 0 3.96155e-10 0 0 0 9.58184e-10 0 0 
0 0 0 0 0 0 0 0 0 
0 0 0 0 1.28221e-09 0 0 0 8.46597e-10 
0 0 0 0 0 8.37756e-10 0 0 0 
0 0 0 0 0 0 0 0 0 
0 0 2.23212e-09 0 1.12384e-09 6.82787e-07 0 2.95992e-09 0 
0 0 0 0 0 0 0 0 0 
0 0 0 0 0 0 0 1.18068e-09 0 
0 0 0 0 0 0 0 0 0 
0 0 0 0 0 0 0 0 0 
0 0 0 0 0 0 0 0 0 
0 2.08371e-09 1.6957e-09 1.26728e-09 0 0 0 3.07089e-09 6.59312e-07 
4.4787e-09 0 0 0 0 0 0 0 0 
4.47832e-10 3.81525e-10 0 0 1.30537e-10 9.55351e-10 0 0 0 
0 0 0 0 0 0 0 2.82692e-10 0 
0 0 0 0 0 0 0 0 1.47897e-09 
0 0 2.70256e-09 6.86118e-10 0 0 0 0 3.17343e-09 
0 0 0 0 0 0 0 0 0 
1.21614e-09 0 0 0 0 1.88073e-09 0 0 0 
0 0 0 0 0 0 0 0 0 
0 0 0 0 0 0 0 0 0 
0 0 0 0 0 0 0 0 0 
0 8.30388e-10 0 0 9.01645e-10 0 0 0 0 
0 0 4.49033e-09 0 6.73077e-07 0 0 1.57605e-09 0 
0 0 0 0 0 0 0 9.29987e-10 0 
0 0 0 0 9.27252e-10 0 0 2.51962e-09 0 
0 0 0 0 0 0 0 0 0 
0 5.59036e-10 0 0 0 6.79217e-07 6.52201e-09 0 0 
4.0146e-09 0 0 0 0 0 0 0 0 
0 6.56724e-10 2.212e-09 0 6.52364e-07 4.11768e-09 0 0 2.67875e-09 
0 1.72865e-09 0 0 0 0 0 0 0 
0 0 0 0 0 0 0 0 0 
0 0 0 0 0 0 0 0 0 
0 0 0 0 0 0 0 0 0 
0 0 0 0 0 0 0 0 0 
0 0 0 0 3.74843e-09 0 0 2.82303e-09 0 
0 0 2.68282e-09 0 0 0 2.71883e-09 6.45551e-07 0 
4.50573e-09 0 0 0 0 0 0 0 0 
6.47125e-07 4.49592e-09 0 1.18388e-09 0 0 0 0 0 
1.48468e-08 6.62878e-07 0 2.1743e-09 0 0 0 0 0 
0 0 1.09076e-09 0 0 0 0 0 0 
0 0 8.56414e-07 0 0 0 0 0 0 
0 0 0 0 0 0 0 0 0 
0 0 0 0 0 0 0 0 0 
0 0 0 0 0 0 0 0 0 
0 0 0 0 0 0 4.72879e-09 0 0 
1.34932e-09 2.22697e-10 0 0 7.33683e-10 0 6.70754e-07 0 3.75378e-09 
0 0 0 0 0 0 2.2695e-09 4.66397e-10 0 
0 0 5.3148e-10 0 0 0 0 0 0 
0 0 1.53062e-09 0 0 0 3.7296e-09 0 0 
0 0 0 2.61353e-09 0 0 0 0 0 
0 0 0 0 0 0 0 0 9.09557e-10 
0 2.84832e-09 0 8.56759e-07 5.13424e-09 0 0 0 0 
0 0 0 0 0 0 0 0 0 
0 0 0 0 0 0 0 0 0 
0 0 0 0 0 0 0 0 1.22651e-09 
0 1.93392e-09 0 0 0 7.60582e-09 6.95466e-07 2.7442e-09 2.52091e-09 
1.01563e-09 2.6819e-09 0 0 0 0 0 0 0 
0 0 0 8.14131e-07 0 9.92913e-10 0 2.05197e-09 0 
0 0 2.88306e-10 0 0 0 0 0 0 
2.12034e-09 0 0 0 0 0 0 0 0 
6.98213e-10 0 0 0 0 0 2.72444e-10 0 0 
0 0 0 0 0 0 1.75945e-09 0 0 
0 0 0 0 0 0 1.37122e-09 0 4.18175e-10 
0 0 0 0 0 0 0 0 0 
0 0 0 0 0 0 0 0 0 
0 0 0 0 0 0 4.05036e-09 1.1755e-09 4.63248e-09 
0 1.18765e-09 0 2.56753e-09 8.11358e-07 0 0 0 3.05873e-09 
5.9252e-10 0 0 0 0 0 0 0 0 
0 0 7.35787e-07 0 2.21985e-09 7.87467e-07 8.96075e-09 0 0 
1.37827e-09 1.8121e-09 0 0 0 0 0 0 0 
0 0 0 2.53596e-10 0 0 0 0 0 