# vtk DataFile Version 5.1
vtk output
ASCII
DATASET STRUCTURED_POINTS
DIMENSIONS 100 100 1
SPACING 1 1 1
ORIGIN 0 0 0
POINT_DATA 10000
FIELD FieldData 6
feature_1 1 10000 float
0 0 0 0 0 0 0 0 0 
0 0 0 0 0 0 0 0 0 
0 0 0 0 0 0 0 0 0 
0 0 0 0 0 0 0 0 0 
0 0 0 0 0 0 0 0 0 
0 0 0 0 0 0 0 0 0 
0 0 0 0 0 0 0 0 0 
0 0 0 0 0 0 0 0 0 
0 0 0 0 0 0 0 0 0 
0 0 0 0 0 0 0 0 0 
0 0 0 0 0 0 0 0 0 
0 0 0 0 0 0 0 0 0 
0 0 0 0 0 0 0 0 0 
0 0 0 0 0 0 0 0 0 
0 0 0 0 0 0 0 0 0 
0 0 0 0 0 0 0 0 0 
0 0 0 0 0 0 0 0 0 
0 0 0 0 0 0 0 0 0 
0 0 0 0 0 0 0 0 0 
0 0 0 0 0 0 0 0 0 
0 0 0 0 0 0 0 0 0 
0 0 0 0 0 0 0 0 0 
0 0 0 0 0 0 0 0 0 
0 0 0 0 0 0 0 0 0 
0 0 0 0 0 0 0 0 0 
0 0 0 0 0 0 0 0 0 
0 0 0 0 0 0 0 0 0 
0 0 0 0 0 0 0 0 0 
0 0 0 0 0 0 0 0 0 
0 0 0 0 0 0 0 0 0 
0 0 0 0 0 0 0 0 0 
0 0 0 0 0 0 0 0 0 
0 0 0 0 0 0 0 0 0 
0 0 0 0 0 0 0 0 0 
0 0 0 0 0 0 0 0 0 
0 0 0 0 0 0 0 0 0 
0 0 0 0 0 0 0 0 0 
0 0 0 0 0 0 0 0 0 
0 0 0 0 0 0 0 0 0 
0 0 0 0 0 0 0 0 0 
0 0 0 0 0 0 0 0 0 
0 0 0 0 0 0 0 0 0 
0 0 0 0 0 0 0 0 0 
0 0 0 0 0 0 0 0 0 
0 0 0 0 0 0 0 0 0 
0 0 0 0 0 0 0 0 0 
0 0 0 0 0 0 0 0 0 
0 0 0 0 0 0 0 0 0 
0 0 0 0 0 0 0 0 0 
0 0 0 0 0 0 0 0 0 
0 0 0 0 0 0 0 0 0 
0 0 0 0 0 0 0 0 0 
0 0 0 0 0 0 0 0 0 
0 0 0 0 0 0 0 0 0 
0 0 0 0 0 0 0 0 0 
0 0 0 0 0 0 0 0 0 
0 0 0 0 0 0 0 0 0 
0 0 0 0 0 0 0 0 0 
0 0 0 0 0 0 0 0 0 
0 0 0 0 0 0 0 0 0 
0 0 0 0 0 0 0 0 0 
0 0 0 0 0 0 0 0 0 
0 0 0 0 0 0 0 0 0 
0 0 0 0 0 0 0 0 0 
0 0 0 0 0 0 0 0 0 
0 0 0 0 0 0 0 0 0 
0 0 0 0 0 0 0 0 0 
0 0 0 0 0 0 0 0 0 
0 0 0 0 0 0 0 0 0 
0 0 0 0 0 0 0 0 0 
0 0 0 0 0 0 0 0 0 
0 0 0 0 0 0 0 0 0 
0 0 0 0 0 0 0 0 0 
0 0 0 0 0 0 0 0 0 
0 0 0 0 0 0 0 0 0 
0 0 0 0 0 0 0 0 0 
0 0 0 0 0 0 0 0 0 
0 0 0 0 0 0 0 0 0 
0 0 0 0 0 0 0 0 0 
0 0 0 0 0 0 0 0 0 
0 0 0 0 0 0 0 0 0 
0 0 0 0 0 0 0 0 0 
0 0 0 0 0 0 0 0 0 
0 0 0 0 0 0 0 0 0 
0 0 0 0 0 0 0 0 0 
0 0 0 0 0 0 0 0 0 
0 0 0 0 0 0 0 0 0 
0 0 0 0 0 0 0 0 0 
0 0 0 0 0 0 0 0 0 
0 0 0 0 0 0 0 0 0 
0 0 0 0 0 0 0 0 0 
0 0 0 0 0 0 0 0 0 
0 0 0 0 0 0 0 0 0 
0 0 0 0 0 0 0 0 0 
0 0 0 0 0 0 0 0 0 
0 0 0 0 0 0 0 0 0 
0 0 0 0 0 0 0 0 0 
0 0 0 0 0 0 0 0 0 
0 0 0 0 0 0 0 0 0 
0 0 0 0 0 0 0 0 0 
0 0 0 0 0 0 0 0 0 
0 0 0 0 0 0 0 0 0 
0 0 0 0 0 0 0 0 0 
0 0 0 0 0 0 0 0 0 
0 0 0 0 0 0 0 0 0 
0 0 0 0 0 0 0 0 0 
0 0 0 0 0 0 0 0 0 
0 0 0 0 0 0 0 0 0 
0 0 0 0 0 0 0 0 0 
0 0 0 0 0 0 0 0 0 
0 0 0 0 0 0 0 0 0 
0 0 0 0 0 0 0 0 0 
0 0 0 0 0 0 0 0 0 
0 0 0 0 0 0 0 0 0 
0 0 0 0 0 0 0 0 0 
0 0 0 0 0 0 0 0 0 
0 1.57533e-09 0 0 0 6.80517e-11 0 0 0 
0 0 0 0 0 0 0 2.33792e-09 5.17084e-10 
0 0 0 0 0 0 0 0 0 
0 0 0 0 0 0 0 0 0 
0 0 0 0 0 0 0 0 0 
0 0 0 0 0 0 0 0 0 
0 0 0 0 0 0 0 0 0 
0 0 0 0 0 0 0 0 0 
0 0 0 0 0 0 0 0 0 
0 0 0 0 0 0 0 0 0 
0 0 0 0 0 0 0 0 1.1967e-09 
0 0 0 0 0 0 0 0 0 
0 0 0 0 0 0 0 0 0 
0 0 0 0 0 0 0 0 0 
0 0 0 0 0 0 0 0 0 
0 0 0 0 0 0 0 0 0 
0 0 0 0 0 0 0 0 0 
0 0 0 0 0 0 0 0 0 
0 0 0 0 0 0 0 0 0 
0 0 0 0 0 0 0 0 0 
0 0 0 0 0 0 0 0 0 
0 0 0 0 0 0 0 0 0 
0 0 0 7.92605e-07 5.98468e-09 2.61885e-09 0 1.11379e-09 0 
0 0 0 0 0 0 1.95896e-09 1.12921e-09 6.44908e-07 
1.69987e-09 0 0 0 0 0 0 0 0 
0 0 0 0 0 0 0 0 0 
0 0 0 0 0 0 0 0 0 
0 0 0 0 0 0 0 0 0 
0 0 0 0 0 0 0 0 0 
0 0 0 0 0 0 0 0 0 
0 0 0 0 0 0 0 0 0 
0 0 0 0 4.72446e-10 0 0 0 0 
0 0 0 1.32389e-09 0 0 0 0 0 
3.00993e-09 0 0 8.33279e-07 0 6.6046e-09 0 0 0 
7.3137e-10 0 0 0 0 0 0 0 0 
0 0 1.65364e-09 1.24406e-09 7.94604e-10 0 0 0 0 
0 0 0 0 0 0 0 0 0 
0 1.68906e-09 0 0 0 0 0 0 0 
0 0 0 0 0 0 0 0 0 
0 0 0 0 0 0 0 0 0 
0 0 0 0 0 0 0 0 0 
0 0 0 0 0 0 0 0 0 
0 0 0 0 4.36567e-09 6.47006e-07 0 0 0 
0 0 0 1.68312e-09 0 7.51871e-09 0 0 1.26854e-09 
0 0 0 0 0 0 0 0 1.47025e-09 
0 0 0 0 0 0 0 0 0 
0 0 0 0 0 0 0 0 0 
0 0 0 0 0 0 1.01641e-09 0 0 
6.46336e-07 1.27824e-09 0 9.27408e-10 0 0 0 0 0 
0 0 0 9.68182e-12 0 0 0 0 0 
0 0 0 0 0 0 0 0 0 
0 0 0 0 0 0 0 0 0 
0 0 0 0 0 0 0 0 0 
0 0 0 0 0 0 0 0 0 
0 0 0 0 1.11268e-09 3.96692e-09 0 4.24234e-09 2.66093e-09 
0 0 0 0 0 0 7.98566e-07 0 0 
9.90039e-10 0 0 0 0 0 0 0 0 
0 0 1.48892e-09 0 0 0 0 0 0 
0 0 0 0 9.13434e-10 0 0 0 0 
0 0 0 0 4.30899e-10 0 0 0 0 
0 0 0 0 0 0 0 0 0 
0 0 0 0 0 0 0 0 0 
0 0 0 0 0 0 0 0 0 
0 0 0 0 0 0 0 0 0 
0 0 0 0 0 0 1.97913e-09 0 0 
6.86449e-10 0 0 3.11951e-10 0 0 2.41895e-09 0 0 
0 0 8.53196e-10 0 0 7.41795e-07 1.20759e-08 0 0 
0 0 6.89665e-07 0 8.57237e-10 9.0875e-10 0 0 0 
0 0 0 0 1.53403e-09 0 1.85738e-09 0 1.27411e-09 
0 2.04853e-09 0 0 0 0 0 0 0 
0 0 0 3.71184e-10 0 0 0 0 0 
0 0 0 0 0 0 0 0 0 
0 0 0 0 0 0 0 0 0 
0 0 0 0 0 0 0 0 0 
0 0 0 0 0 0 0 0 0 
0 0 0 0 0 0 1.14234e-09 4.97982e-09 0 
2.00838e-09 0 0 0 0 0 0 0 2.03179e-09 
1.67788e-09 0 0 0 1.29273e-09 1.6796e-09 0 0 2.25164e-09 
0 0 0 0 0 0 5.72495e-10 0 0 
0 0 0 0 0 0 0 7.19001e-07 0 
7.19144e-07 7.87654e-09 0 0 0 0 0 0 6.67497e-07 
0 0 0 0 0 0 0 0 0 
0 0 0 0 0 0 0 0 0 
0 0 0 0 0 0 0 0 0 
0 0 0 0 0 0 0 0 0 
0 0 0 0 0 0 0 0 0 
0 0 0 0 0 3.55544e-09 0 1.37551e-09 0 
0 0 0 0 0 0 0 0 1.86363e-09 
0 0 0 0 0 0 0 0 0 
0 0 0 0 0 0 1.71029e-09 0 0 
0 0 0 0 0 0 0 0 0 
0 0 2.16704e-09 0 0 0 0 9.8809e-10 0 
0 0 2.09571e-09 1.9626e-09 1.38422e-09 0 0 0 0 
0 0 0 0 0 0 0 0 0 
0 0 0 0 0 0 0 0 0 
0 0 0 0 0 0 0 0 0 
0 0 0 0 0 0 0 0 0 
0 0 0 0 0 0 0 1.70404e-09 1.61136e-09 
3.78261e-09 6.49531e-07 0 0 0 0 0 0 0 
0 0 0 0 6.50027e-07 0 0 0 0 
0 8.98369e-07 9.15248e-07 0 1.90862e-09 7.20273e-07 0 0 0 
0 0 0 0 0 0 0 2.03437e-09 0 
0 1.53987e-09 0 0 0 1.28163e-09 0 1.76318e-09 0 
1.81918e-09 0 7.65811e-10 1.40874e-09 1.15512e-09 0 0 0 0 
0 0 0 0 0 0 0 0 0 
0 0 0 0 0 0 0 0 0 
0 0 0 0 0 0 0 0 0 
0 0 0 0 0 0 0 0 0 
0 0 0 6.36287e-10 1.9587e-09 4.19869e-09 6.47061e-07 5.32753e-09 0 
0 2.61664e-09 3.7149e-09 0 0 0 0 0 3.36196e-11 
0 0 0 0 0 0 0 0 1.44649e-09 
0 0 0 0 0 0 1.75992e-09 0 1.23315e-09 
0 0 1.1422e-09 0 0 0 0 0 0 
0 0 0 0 0 0 1.21316e-10 0 0 
0 6.68634e-07 1.01492e-09 0 0 0 0 0 0 
0 0 0 0 0 0 0 1.69396e-09 0 
0 0 0 0 0 0 0 0 0 
0 0 0 0 0 0 0 0 0 
0 0 0 0 0 0 0 0 0 
0 0 0 0 0 1.07235e-09 0 0 5.17098e-09 
2.05024e-09 0 1.36389e-09 0 1.63061e-09 0 0 0 0 
0 6.65311e-10 0 0 0 0 0 0 0 
1.38422e-09 0 0 0 0 0 0 3.04565e-09 0 
1.51786e-09 0 0 0 0 0 0 0 0 
0 0 6.99815e-10 0 0 1.84805e-09 1.57224e-10 0 0 
0 0 0 0 6.22054e-10 0 0 0 1.86918e-09 
0 0 0 0 0 0 1.23282e-09 5.01829e-09 0 
0 0 0 0 0 0 0 0 0 
0 0 0 0 0 0 0 0 0 
0 0 0 0 0 0 0 0 0 
0 0 0 0 0 0 0 0 0 
0 0 0 0 0 0 0 0 0 
0 0 0 0 0 0 0 0 0 
0 0 0 0 0 2.0464e-09 0 0 2.18996e-10 
0 5.81218e-10 0 0 0 0 0 0 0 
0 0 0 0 0 0 0 4.38615e-09 0 
0 0 0 0 0 1.56206e-09 0 0 0 
0 0 0 0 0 0 0 0 0 
7.19006e-07 0 1.83377e-09 1.53097e-09 0 0 0 0 0 
0 0 0 0 0 0 0 0 0 
0 0 0 0 0 0 0 0 0 
0 0 0 0 0 1.40376e-09 0 0 0 
0 0 0 0 0 0 0 1.66992e-09 0 
0 0 7.21363e-10 2.86976e-10 0 0 8.25273e-10 0 0 
2.07348e-10 0 0 0 1.68418e-09 0 0 8.76689e-07 8.73879e-07 
0 0 0 0 0 0 0 0 5.13075e-10 
0 0 0 0 0 0 0 0 6.46662e-07 
0 0 0 1.82737e-10 0 0 0 0 0 
0 6.54926e-07 0 0 0 0 0 0 2.88486e-09 
5.88754e-09 0 0 0 0 0 0 0 0 
0 0 0 0 0 0 0 0 0 
0 0 0 0 0 0 0 0 0 
7.39462e-10 0 0 0 0 0 0 1.00754e-09 0 
0 0 0 0 0 0 0 0 0 
1.06193e-09 0 0 0 0 7.15163e-10 0 0 0 
0 0 0 0 0 1.73515e-09 0 0 3.37223e-09 
0 0 2.26991e-09 1.68767e-10 0 0 6.46028e-07 1.91347e-09 0 
1.01052e-09 0 0 0 0 0 0 2.83553e-09 0 
0 0 0 0 0 0 4.63392e-09 0 0 
0 0 1.29154e-09 1.14305e-10 3.99682e-09 0 1.11928e-09 0 1.19691e-09 
1.65635e-09 0 7.2574e-07 0 0 0 0 0 0 
0 0 0 0 0 0 0 0 0 
0 0 0 0 0 0 0 0 0 
0 0 0 9.91618e-10 1.07354e-09 2.00713e-10 0 0 0 
0 0 0 0 0 0 0 0 0 
0 0 3.00932e-09 0 7.69163e-10 0 9.71146e-10 6.64578e-11 0 
0 0 0 0 0 0 0 1.93412e-09 0 
4.34678e-09 0 0 0 2.44081e-09 0 0 2.61905e-09 7.59981e-10 
0 0 1.1621e-09 0 0 0 0 6.05324e-10 0 
0 0 1.54641e-09 8.42889e-10 0 0 8.85368e-09 6.54745e-07 4.68031e-09 
0 0 0 0 0 0 0 5.14336e-10 0 
0 0 3.7694e-09 0 0 4.26308e-10 0 0 0 
0 0 0 0 0 0 0 0 0 
0 0 0 0 0 0 0 0 0 
0 0 0 0 0 0 0 0 0 
7.18813e-07 0 0 0 0 0 0 0 0 
0 0 4.28598e-09 6.47068e-07 0 0 1.61818e-09 3.67635e-09 6.98924e-07 
0 2.40593e-09 1.53554e-09 0 0 0 0 1.18788e-09 0 
0 0 0 0 1.50341e-09 0 0 0 0 
0 0 0 0 0 0 0 1.41e-11 5.9355e-10 
0 0 1.08072e-09 0 1.7248e-09 0 0 0 3.07048e-09 
0 0 2.83959e-09 0 0 0 0 1.25613e-09 0 
0 0 0 2.86651e-09 0 0 2.48055e-09 0 0 
0 0 0 0 0 0 0 0 0 
0 0 0 0 0 0 0 0 0 
0 0 0 6.59957e-07 0 0 0 0 7.75548e-07 
0 0 0 0 0 0 0 0 0 
0 0 0 0 0 0 0 0 0 
0 0 7.06269e-07 0 0 4.01654e-09 0 0 0 
0 8.95449e-10 2.81816e-09 0 0 6.53859e-10 0 0 0 
1.21811e-09 0 0 0 0 0 0 0 0 
0 1.13475e-09 0 0 0 0 0 0 0 
0 0 0 0 0 6.56271e-07 0 0 1.42896e-09 
0 5.13082e-10 0 0 5.53375e-10 9.21701e-10 0 1.56554e-09 0 
0 0 0 0 0 0 0 0 0 
0 0 0 0 0 0 0 0 0 
0 0 1.3653e-09 4.07519e-09 0 0 0 0 0 
0 0 3.4986e-09 2.38194e-09 0 0 1.06423e-09 0 0 
0 0 0 0 1.06752e-09 0 0 0 0 
1.54234e-09 0 0 0 0 0 2.15542e-09 6.04859e-09 3.58751e-09 
0 5.87158e-09 7.04257e-07 0 0 2.3397e-10 0 0 0 
0 0 0 0 3.78215e-09 2.90992e-09 4.85623e-09 1.63442e-09 0 
0 0 4.32794e-10 0 0 0 2.00778e-09 0 0 
0 0 2.60785e-09 0 0 0 0 0 0 
0 0 0 0 0 6.73343e-07 0 0 0 
2.42954e-10 0 0 0 0 0 0 0 0 
0 0 0 0 0 0 0 0 0 
0 0 0 0 0 0 1.33673e-09 0 7.11533e-07 
9.24635e-09 1.07633e-09 7.43757e-07 4.88607e-09 2.58551e-09 0 0 0 0 
0 8.25997e-10 0 0 0 0 0 0 0 
0 1.13341e-09 1.47297e-09 0 0 0 0 0 0 
0 0 0 7.24254e-09 0 0 0 0 0 
0 0 0 0 1.31362e-09 0 6.59301e-07 4.59555e-09 2.41323e-09 
0 0 0 0 0 0 6.50337e-07 2.28487e-09 1.58296e-09 
0 0 6.80248e-09 3.68065e-09 2.65277e-09 0 0 0 9.62965e-10 
0 0 0 0 0 0 0 0 0 
0 0 0 0 0 0 0 0 0 
0 0 0 0 0 0 0 0 0 
0 0 0 0 0 0 2.0915e-09 2.1087e-09 0 
0 0 0 0 0 5.89778e-10 1.37586e-09 0 2.92401e-09 
0 0 2.78716e-09 1.56377e-09 0 0 0 0 0 
0 0 3.44811e-10 0 0 0 0 0 0 
7.02477e-07 0 0 7.23939e-07 4.68547e-09 0 0 0 0 
0 0 0 0 0 0 0 2.5754e-09 0 
0 0 0 1.73606e-09 1.2755e-09 0 4.46845e-09 0 3.67728e-09 
0 0 4.0413e-09 6.50669e-07 0 0 1.1794e-09 0 9.92212e-10 
0 0 0 0 2.00126e-09 0 0 0 0 
0 0 5.31341e-10 0 0 0 0 0 0 
0 0 0 0 0 0 0 0 0 
0 0 0 0 0 0 0 0 5.63399e-10 
0 0 0 0 0 0 2.05185e-09 3.29137e-09 0 
0 8.72017e-07 0 0 0 0 0 0 0 
0 0 0 0 0 0 0 7.20898e-07 0 
5.61277e-09 0 0 0 0 0 0 0 0 
0 0 0 2.03471e-10 1.68487e-09 2.51342e-09 2.23933e-09 3.64407e-09 0 
0 0 0 0 0 0 0 0 0 
0 0 0 0 0 0 0 5.56212e-11 0 
0 0 0 0 0 0 0 6.76055e-07 4.46631e-09 
0 0 0 0 0 0 0 0 0 
0 0 0 0 0 0 0 0 0 
0 0 0 0 0 0 0 0 7.65019e-11 
0 1.31441e-09 1.16371e-09 0 1.64322e-09 0 0 2.85214e-10 0 
3.88171e-09 0 8.8507e-07 0 0 0 0 0 0 
0 0 0 0 0 2.81624e-09 0 5.76517e-09 0 
0 0 3.32239e-09 2.93976e-09 0 0 0 0 1.32638e-09 
0 0 0 0 0 0 0 5.20824e-07 5.90261e-10 
0 3.22806e-09 0 0 0 0 2.37761e-09 3.59434e-09 0 
0 0 1.1557e-09 1.81574e-09 0 0 0 0 0 
0 0 0 0 0 0 1.91396e-09 0 0 
0 0 0 0 0 0 0 0 0 
0 0 0 0 0 0 0 0 1.03792e-12 
0 0 0 0 0 0 0 0 0 
0 0 0 0 0 0 7.49154e-10 0 0 
0 0 0 0 0 5.52056e-09 6.84761e-07 4.57962e-09 0 
0 0 0 0 7.73629e-10 0 0 0 0 
0 0 0 0 0 0 0 0 0 
0 0 0 0 0 0 0 0 5.72722e-09 
0 0 0 0 7.4868e-07 0 8.05041e-07 0 0 
0 0 0 0 0 0 0 0 0 
0 0 0 0 0 3.7088e-09 6.55878e-07 0 0 
0 0 0 0 0 0 0 0 0 
0 0 0 0 0 0 0 0 0 
0 0 0 0 0 0 0 0 0 
0 0 0 0 0 0 0 0 0 
2.33958e-09 1.37367e-09 0 0 0 0 1.52848e-09 4.35266e-09 8.03746e-10 
0 1.66895e-09 0 0 0 0 0 0 0 
8.99381e-07 9.13672e-07 0 4.08556e-09 3.65396e-10 3.60022e-11 0 0 4.66091e-09 
0 0 0 0 0 0 0 0 0 
7.72781e-10 1.34394e-09 1.8794e-09 0 0 0 0 3.65627e-09 0 
2.0091e-09 0 0 0 0 9.542e-10 8.44439e-10 0 0 
0 0 0 0 0 0 2.22644e-09 2.49239e-09 0 
2.71435e-09 0 0 0 0 0 0 0 0 
0 0 0 0 0 0 0 0 0 
0 0 0 0 0 0 0 0 0 
0 0 0 0 0 0 0 0 0 
0 0 0 2.37058e-09 0 0 0 0 0 
0 9.01595e-10 0 0 0 0 0 0 2.96353e-09 
0 0 0 0 4.44151e-09 0 0 0 3.56991e-09 
0 0 2.12028e-09 0 3.88225e-09 0 0 0 0 
0 2.72496e-09 0 0 0 0 0 0 3.40662e-09 
8.77655e-07 0 0 7.35701e-07 0 1.27859e-09 1.70885e-09 0 0 
0 0 0 0 0 0 0 0 0 
0 0 0 0 0 0 0 0 0 
0 0 0 0 0 0 0 0 0 
0 0 0 0 0 0 0 0 0 
0 0 0 0 0 0 0 0 0 
0 0 0 3.52339e-09 7.14391e-07 0 9.17898e-09 0 0 
4.19497e-09 3.38648e-09 0 2.1199e-09 0 0 0 0 1.124e-09 
0 0 0 0 0 0 0 0 0 
0 7.62215e-07 0 0 0 6.58777e-07 0 1.06869e-09 6.56153e-10 
0 7.51475e-10 0 0 1.66916e-09 0 0 0 0 
8.32077e-07 0 0 0 2.83262e-09 0 0 0 0 
0 0 0 0 0 0 0 0 0 
0 0 0 6.4538e-10 4.90543e-10 0 0 0 0 
0 0 0 0 0 0 0 0 0 
0 0 0 0 0 0 0 0 0 
0 0 0 0 0 0 0 0 0 
0 0 6.88739e-10 0 0 0 0 7.7917e-07 4.46776e-09 
0 0 0 6.54262e-07 0 0 1.59251e-09 4.34258e-10 0 
0 1.95455e-09 0 0 7.12553e-07 0 0 0 0 
0 0 1.00967e-08 0 0 0 4.24802e-09 0 1.33096e-09 
0 0 0 0 0 0 6.46855e-10 0 0 
0 0 1.05816e-09 0 7.48211e-07 6.97735e-09 0 0 0 
0 0 0 0 0 0 0 0 0 
0 0 0 0 0 0 0 0 0 
0 0 0 0 0 0 0 0 0 
0 0 0 0 0 0 0 0 0 
0 0 0 0 0 0 0 0 0 
0 0 0 0 0 0 0 0 5.39314e-09 
3.51184e-09 0 0 3.99331e-09 4.51657e-09 0 1.60529e-09 0 0 
0 0 0 0 0 0 0 1.08352e-09 8.49974e-09 
0 8.81097e-07 0 8.21273e-07 2.49455e-09 4.0116e-09 0 0 3.72879e-09 
0 0 0 0 0 0 0 0 0 
0 0 2.25503e-09 0 0 0 0 0 0 
3.80111e-10 0 0 0 0 0 0 0 0 
0 0 0 0 0 0 0 0 0 
0 0 0 0 0 0 0 0 0 
0 0 0 0 0 0 0 0 0 
0 0 0 0 0 0 8.29397e-10 0 0 
0 0 0 0 0 0 1.76762e-09 2.40705e-09 1.01967e-08 
7.33409e-07 0 0 1.27145e-09 0 0 0 1.39814e-09 0 
0 0 0 0 0 0 0 8.95431e-09 0 
0 8.59864e-07 0 0 0 0 0 0 0 
0 0 0 0 0 6.67501e-07 0 3.43408e-09 0 
0 1.44759e-09 0 0 4.15707e-09 0 0 0 0 
0 0 0 0 0 0 0 0 0 
0 0 5.51627e-10 0 0 0 0 0 0 
0 0 0 0 0 0 0 0 0 
0 0 0 0 0 0 0 0 0 
0 0 0 0 0 0 0 6.44131e-07 0 
0 0 0 0 0 0 0 0 0 
0 0 2.07959e-09 0 2.14204e-09 0 2.53087e-09 1.56874e-09 0 
0 0 0 6.65802e-10 0 0 0 0 0 
7.5475e-07 0 0 0 0 0 0 0 0 
0 0 0 1.28527e-09 0 0 5.06239e-09 0 2.99195e-09 
0 0 0 0 0 0 2.33608e-09 0 9.9753e-10 
1.1693e-09 0 0 0 0 0 0 0 0 
0 0 0 0 0 0 0 0 0 
4.52532e-10 0 0 0 0 0 0 0 0 
0 0 0 0 0 0 0 0 0 
0 0 0 0 0 0 2.39404e-09 2.07522e-09 0 
0 0 0 0 0 0 0 0 0 
0 3.16635e-09 0 0 0 0 0 0 0 
0 0 0 0 6.78061e-10 0 0 3.27377e-09 0 
0 0 0 0 0 0 6.87158e-10 9.79525e-10 0 
0 0 0 0 0 0 0 0 0 
4.81588e-09 0 0 8.46186e-07 0 8.42027e-07 8.85157e-09 0 6.50148e-10 
0 0 0 0 0 0 0 0 0 
0 0 0 0 3.50484e-09 0 0 0 0 
2.29501e-09 1.11946e-09 0 0 0 0 0 0 0 
0 0 0 0 0 0 0 0 0 
0 0 0 0 0 0 0 0 0 
0 0 0 0 1.44982e-09 3.13935e-09 0 0 0 
0 0 0 0 0 0 0 0 0 
0 0 0 0 2.16937e-10 0 0 0 0 
1.52321e-09 0 5.18258e-09 0 0 4.10243e-09 0 0 0 
0 0 0 0 6.38987e-10 0 0 0 0 
6.76054e-07 2.96441e-09 0 0 0 8.80308e-07 0 3.78692e-09 2.56725e-09 
0 0 2.20985e-10 0 0 0 0 0 0 
4.24599e-10 0 1.33537e-09 0 4.54158e-09 0 0 0 7.17274e-07 
2.26433e-09 0 0 0 0 0 0 0 0 
0 0 0 0 0 0 0 0 0 
0 0 0 0 0 0 8.92454e-11 0 0 
0 0 8.51394e-10 0 0 0 0 6.44226e-07 0 
0 1.37597e-09 0 0 0 0 0 0 0 
0 0 0 0 6.48333e-07 0 0 0 0 
0 0 0 0 9.07088e-07 8.93561e-07 0 0 0 
0 0 0 0 0 0 0 0 0 
2.53071e-09 8.72518e-09 0 0 0 1.34588e-09 0 0 1.79254e-09 
0 0 0 3.25383e-10 0 0 0 0 0 
1.58304e-09 0 0 0 0 1.23709e-08 7.00021e-07 0 0 
0 0 0 0 0 0 0 0 0 
0 0 0 0 0 0 0 0 0 
0 0 0 0 0 0 0 0 0 
0 0 0 0 0 0 0 1.42689e-09 1.77229e-09 
0 0 0 0 0 0 0 0 0 
2.11746e-10 0 0 0 3.06288e-09 0 0 2.41177e-09 0 
0 0 0 0 0 1.14309e-08 0 0 0 
0 0 0 0 0 0 0 0 0 
0 0 0 0 0 0 0 0 3.27382e-11 
0 0 0 0 0 0 0 0 0 
0 0 1.69429e-09 0 0 0 0 2.07016e-09 0 
5.08951e-09 0 7.11525e-07 0 0 0 0 0 0 
0 0 0 0 0 0 0 0 0 
0 0 0 0 0 0 0 0 0 
2.59986e-10 3.75316e-10 0 0 8.29636e-10 0 0 0 0 
1.18708e-09 0 0 0 0 0 0 0 0 
0 0 0 0 0 2.5013e-09 0 0 6.01728e-10 
0 0 0 0 1.09132e-09 0 0 0 3.57671e-09 
2.11956e-10 0 0 0 0 0 0 0 0 
0 0 0 0 0 0 1.75534e-09 0 2.99699e-09 
2.53109e-09 0 0 0 0 0 0 0 0 
0 0 0 0 0 0 6.87662e-07 1.19341e-09 1.42031e-09 
0 0 3.43461e-09 2.41155e-09 0 0 0 0 0 
0 0 0 0 0 0 0 0 0 
0 0 0 0 0 0 0 0 0 
0 0 0 0 0 0 0 0 0 
0 0 0 4.91021e-10 0 0 0 0 0 
0 0 0 8.59774e-10 0 0 0 1.91658e-09 1.32527e-09 
0 0 0 0 2.05773e-09 8.6446e-09 6.77741e-07 0 0 
1.52859e-09 0 9.05373e-10 0 0 0 0 0 0 
0 0 0 0 0 0 9.78049e-10 0 0 
0 0 0 0 0 0 4.00228e-09 3.19714e-09 0 
0 0 0 6.54359e-07 0 1.94147e-09 7.27832e-10 0 0 
3.63916e-09 0 0 0 0 2.53183e-09 0 0 0 
0 0 0 0 0 0 0 0 0 
0 0 0 0 0 0 0 0 0 
0 0 0 1.509e-09 0 2.04189e-09 0 0 0 
1.27065e-09 0 0 0 0 0 0 0 0 
0 0 0 0 0 0 6.48117e-07 0 0 
0 0 0 0 0 0 0 0 3.5006e-09 
0 0 1.11433e-09 0 0 0 0 0 0 
0 0 0 0 0 0 0 0 0 
0 0 0 0 0 2.55832e-09 6.2187e-09 6.49571e-07 0 
0 0 0 0 8.41789e-09 3.9083e-09 0 0 0 
0 1.52632e-09 0 0 0 0 0 1.02554e-09 1.53791e-09 
0 3.99246e-10 0 0 0 0 0 0 0 
0 0 0 0 0 0 0 0 0 
0 0 0 0 0 7.57748e-10 6.44435e-07 4.67305e-09 3.57419e-09 
0 0 0 0 0 0 0 0 0 
0 0 0 0 0 9.58737e-10 1.76739e-09 0 0 
0 0 0 0 0 0 8.62235e-10 1.21998e-09 0 
2.7294e-09 0 0 0 0 0 0 6.77741e-07 0 
0 9.03897e-10 0 0 0 0 0 0 0 
0 0 0 0 4.12116e-09 0 0 2.93357e-09 0 
0 0 0 8.02543e-10 0 0 0 0 0 
0 0 0 3.64934e-09 0 0 0 6.60418e-07 0 
0 0 5.57651e-10 0 0 0 0 0 0 
0 0 0 0 0 0 0 0 0 
0 0 0 0 1.03043e-09 0 0 0 2.40006e-09 
0 0 0 0 0 0 0 0 0 
0 6.6231e-10 0 0 0 0 0 0 5.9624e-10 
0 7.6738e-10 0 0 0 0 0 0 3.85689e-10 
0 0 0 0 3.38201e-10 0 2.53801e-09 0 0 
0 0 0 0 0 0 0 0 0 
0 0 0 0 0 6.48659e-07 4.3706e-09 4.41989e-09 0 
0 0 0 0 0 1.177e-09 0 0 0 
3.33144e-09 0 6.5728e-07 3.15538e-09 0 1.86882e-09 0 1.83143e-09 0 
0 0 0 0 0 0 0 0 0 
0 0 0 0 0 0 0 0 0 
0 0 0 0 0 0 0 0 0 
1.58004e-09 4.95628e-10 0 0 0 0 0 0 0 
0 0 0 0 5.77906e-10 0 0 0 0 
0 0 1.16515e-09 0 0 0 0 7.61091e-10 0 
0 0 0 1.5039e-09 0 0 0 9.46256e-10 3.76964e-09 
0 0 0 9.85855e-07 9.13928e-07 0 0 4.50861e-10 0 
0 0 0 0 0 0 0 0 0 
9.65145e-10 8.57439e-10 0 0 0 0 7.63988e-10 0 0 
0 0 0 0 0 0 0 0 0 
0 0 0 0 0 0 0 0 0 
0 0 0 0 0 0 0 0 0 
0 0 0 0 0 0 0 0 0 
1.279e-09 0 0 0 0 0 0 0 0 
0 0 0 0 0 0 1.17614e-09 1.21853e-09 0 
0 0 0 0 0 0 0 4.20003e-10 0 
0 0 0 0 0 0 0 0 0 
0 0 0 8.31311e-07 0 0 6.74295e-09 0 0 
5.04659e-10 5.20415e-10 0 0 0 0 0 7.74291e-10 9.16821e-10 
0 0 0 0 0 0 0 0 0 
2.9361e-09 8.07241e-10 1.80282e-09 0 0 0 1.11236e-09 0 0 
0 0 1.85975e-09 0 0 0 0 0 0 
0 0 0 0 0 0 0 0 0 
0 0 0 0 0 0 0 0 5.54926e-10 
0 0 0 0 0 0 0 0 0 
0 0 0 0 0 0 1.94525e-09 0 0 
0 0 4.97305e-10 0 0 0 4.15192e-09 6.47279e-07 0 
0 0 0 0 1.64717e-09 0 0 0 0 
6.70675e-07 0 3.36245e-09 0 0 0 0 0 0 
0 0 0 0 0 0 0 0 0 
0 0 0 0 0 0 0 0 4.60171e-09 
6.66133e-07 0 0 1.53345e-09 1.22478e-09 0 0 0 0 
1.75878e-09 6.56825e-07 0 0 0 0 0 0 0 
0 0 0 0 0 0 0 0 0 
0 0 0 0 0 0 0 0 1.82486e-10 
0 0 0 5.80842e-09 0 0 0 0 0 
0 0 0 0 0 5.85692e-09 6.78974e-07 0 0 
0 0 0 1.22103e-09 0 0 0 3.38959e-09 0 
2.68429e-09 0 0 0 0 0 0 1.78681e-09 0 
0 6.21232e-09 0 0 0 0 0 3.59757e-09 2.79082e-10 
0 5.86758e-10 0 0 0 0 0 0 0 
0 0 0 0 0 0 0 0 0 
0 0 0 2.51e-09 0 0 0 0 2.21016e-09 
0 1.12835e-08 0 0 0 0 0 0 0 
0 0 0 0 0 0 0 0 0 
0 0 0 0 0 0 0 0 0 
0 0 0 6.44043e-07 0 0 0 0 0 
0 0 0 0 6.79476e-07 0 0 0 5.63187e-09 
0 0 0 5.69193e-10 0 0 0 3.4378e-09 0 
1.94494e-09 2.08213e-09 0 0 0 0 1.03425e-09 1.23555e-09 6.5659e-07 
4.62356e-09 3.44157e-09 0 0 0 0 0 1.96041e-09 0 
0 0 0 0 0 0 8.50486e-10 0 0 
0 0 0 0 0 0 0 0 1.62194e-09 
0 0 0 0 0 2.06005e-09 0 0 5.33332e-09 
0 0 2.28534e-09 0 0 0 0 0 0 
0 0 0 0 0 0 0 0 0 
0 0 0 0 0 0 0 0 0 
0 0 0 0 2.1271e-09 0 0 0 1.30635e-09 
0 0 0 0 0 0 0 0 0 
0 1.92251e-09 0 1.63708e-09 0 0 3.7184e-09 0 0 
2.07932e-09 0 0 9.96816e-10 0 0 0 0 0 
1.18125e-09 2.46937e-09 1.23651e-09 0 0 0 0 0 0 
0 0 1.49084e-09 6.67944e-07 4.85163e-09 0 0 8.20891e-10 0 
0 0 0 0 0 0 0 0 0 
0 0 0 0 0 1.54172e-09 0 2.27411e-09 0 
6.52365e-07 0 0 0 2.25961e-09 1.07661e-09 0 0 0 
0 0 0 0 0 0 0 0 0 
0 0 0 0 0 0 0 0 0 
0 0 0 1.04458e-09 0 0 0 0 9.18144e-10 
0 0 0 2.66209e-09 0 0 0 0 1.91858e-09 
2.35181e-09 2.49352e-09 7.37881e-07 3.62198e-09 0 0 0 6.63214e-07 2.42737e-09 
0 0 0 6.32311e-10 0 2.75875e-09 0 0 0 
7.9594e-10 2.02091e-09 0 1.86599e-10 0 0 0 0 0 
0 0 0 0 0 0 0 0 7.40333e-10 
0 0 0 0 0 0 0 0 0 
0 0 0 9.83103e-07 1.08418e-06 0 0 0 0 
0 0 0 0 0 0 0 0 0 
0 0 0 0 0 0 0 0 0 
0 0 0 0 0 0 0 0 0 
0 0 0 0 0 0 0 0 0 
0 6.08703e-10 0 0 0 7.08076e-07 2.21363e-09 0 1.86088e-09 
0 0 4.04031e-09 1.07362e-09 0 0 0 0 2.30911e-09 
2.22758e-09 0 0 0 0 6.71921e-07 2.00833e-09 1.2403e-09 1.64419e-09 
0 0 0 0 0 0 0 0 0 
5.46708e-10 0 0 0 0 0 3.99903e-09 0 5.96355e-10 
0 0 0 0 0 0 0 0 0 
0 0 0 0 0 9.49503e-07 0 0 3.9211e-09 
1.72132e-09 0 0 0 0 6.20469e-10 0 0 7.66631e-07 
0 0 1.55455e-09 0 0 0 0 0 0 
0 0 0 0 0 0 0 0 0 
0 0 0 0 0 0 0 0 0 
0 0 0 0 0 0 1.45419e-09 0 1.20014e-09 
0 0 0 0 7.438e-07 0 2.28869e-09 0 3.03334e-09 
0 0 0 4.02901e-09 0 0 0 0 0 
2.18708e-09 0 8.8421e-11 0 0 0 0 0 0 
0 0 0 0 0 0 0 6.80454e-07 0 
0 1.75621e-09 4.6799e-10 0 0 0 0 0 0 
0 0 0 1.12189e-09 0 0 0 0 0 
2.10471e-09 3.50912e-09 0 0 0 0 0 0 0 
0 7.70217e-07 0 0 0 0 0 0 0 
0 0 0 0 0 0 0 0 0 
0 0 0 0 0 0 0 0 0 
0 0 0 0 0 6.61403e-09 6.95904e-07 3.2333e-09 0 
4.20665e-09 0 0 1.91831e-09 0 0 0 0 1.69585e-09 
0 0 3.62757e-09 6.64619e-07 8.2329e-10 9.66564e-10 0 1.73051e-09 0 
0 0 1.26692e-09 0 1.70275e-09 0 1.00132e-09 0 0 
0 0 2.2624e-09 7.63169e-07 8.10347e-09 0 0 0 0 
1.97356e-09 0 7.70662e-09 0 6.92962e-10 0 0 1.06863e-09 1.09043e-09 
0 0 1.17442e-09 0 0 0 0 4.42872e-09 1.24024e-09 
0 6.68434e-07 3.85807e-09 1.97942e-09 0 8.67363e-10 0 0 0 
0 0 0 3.20008e-09 0 0 0 0 0 
0 0 0 0 0 0 0 0 0 
0 0 0 0 0 0 0 0 0 
0 0 0 0 0 0 2.96042e-09 0 0 
0 0 0 3.43893e-10 0 0 7.48398e-10 0 2.45983e-09 
0 0 0 0 0 1.02092e-08 0 1.76139e-09 0 
6.72128e-07 0 2.43275e-09 0 0 3.06533e-09 0 0 0 
0 0 0 0 0 7.66216e-07 0 1.6489e-09 0 
0 0 0 4.4858e-09 0 0 2.67721e-09 1.38819e-09 0 
0 3.5566e-10 0 0 0 0 0 0 0 
0 2.68564e-09 0 1.43326e-09 0 0 0 0 0 
0 0 0 0 2.63786e-09 0 0 0 0 
0 0 0 0 0 0 0 0 0 
0 0 0 0 0 0 0 0 0 
0 0 0 0 0 0 0 0 0 
0 1.45299e-09 0 0 0 0 0 0 6.74639e-07 
0 0 2.00112e-09 2.01302e-09 1.11939e-09 0 0 4.01181e-09 0 
0 0 0 0 0 0 6.62034e-07 0 0 
0 0 0 1.46974e-09 0 0 0 0 0 
0 0 0 0 0 9.63868e-07 1.78453e-09 0 0 
0 0 2.91368e-09 0 6.55548e-07 0 0 0 0 
0 1.82468e-09 2.71313e-09 0 0 0 0 0 0 
0 0 4.74852e-09 0 0 0 0 7.69063e-10 0 
0 0 0 0 0 0 0 0 0 
0 0 0 0 0 0 0 0 0 
0 0 0 0 0 0 0 0 0 
0 0 0 0 0 0 0 0 0 
0 0 0 0 0 0 0 0 0 
0 7.5063e-10 0 1.32837e-09 0 0 0 0 0 
1.58528e-09 1.0566e-09 0 0 0 0 1.90809e-09 0 0 
0 0 0 0 0 0 0 0 0 
0 0 0 0 0 4.16464e-09 2.65981e-09 0 0 
0 0 0 0 0 0 8.78659e-10 0 0 
3.20681e-09 0 0 5.09878e-09 8.23431e-07 0 0 0 0 
0 0 0 0 0 0 0 0 0 
0 0 0 0 0 0 0 0 0 
0 0 0 0 0 0 0 0 0 
0 1.16651e-09 0 0 0 0 0 4.7145e-10 0 
0 0 0 2.37912e-09 0 0 0 0 0 
0 0 1.79665e-09 0 0 3.43126e-09 2.81116e-09 0 2.49283e-09 
0 1.78805e-09 1.51197e-09 0 0 0 0 0 0 
0 0 0 0 0 0 0 1.00383e-06 9.88745e-09 
0 0 0 0 2.17009e-09 0 0 0 2.59089e-09 
0 5.99625e-10 0 2.40569e-09 0 0 0 0 0 
0 0 3.75762e-09 0 9.82848e-07 0 0 0 0 
0 0 0 0 0 0 0 0 0 
0 0 0 0 0 0 0 0 0 
0 0 0 0 0 0 0 0 1.80627e-09 
6.53734e-09 0 1.28463e-09 0 0 0 0 0 6.51405e-07 
4.25842e-09 0 0 1.72661e-09 0 0 2.15022e-09 0 5.67612e-10 
0 0 0 0 0 1.14911e-09 0 6.72041e-07 0 
0 0 0 0 0 0 0 0 0 
6.64549e-10 0 0 0 2.82185e-09 0 0 0 9.42397e-07 
0 0 0 0 7.48196e-07 0 0 1.04199e-11 0 
0 0 0 0 0 0 0 1.81285e-09 0 
0 6.7769e-07 1.26997e-09 0 0 9.19309e-07 0 0 0 
1.16224e-09 0 0 0 0 0 0 0 0 
0 0 0 0 0 0 0 0 0 
0 0 0 0 0 0 0 0 0 
0 0 0 6.09096e-10 3.01364e-10 0 1.39408e-09 0 0 
2.8349e-09 2.17621e-09 0 1.35491e-09 0 0 0 0 0 
0 0 0 0 0 0 0 0 8.86678e-10 
0 1.37598e-09 2.4469e-09 0 0 2.51926e-09 0 0 0 
1.35074e-09 0 0 2.11054e-09 0 1.0483e-09 1.47809e-09 0 0 
6.30725e-09 0 0 9.49976e-07 0 1.43817e-09 0 3.85554e-09 0 
0 4.32727e-09 0 1.75343e-09 3.6568e-09 0 6.65676e-07 0 0 
1.71547e-09 0 3.97824e-09 1.39411e-09 3.74425e-09 0 0 0 0 
0 0 4.94856e-10 0 0 0 0 0 0 
0 0 0 0 0 0 0 0 0 
0 0 0 0 0 0 0 0 0 
0 5.31382e-09 6.77217e-07 5.66508e-09 0 7.26462e-10 0 0 0 
0 0 3.03577e-09 0 0 0 6.42617e-10 1.21106e-09 6.52223e-07 
0 1.40168e-09 0 0 0 0 0 0 0 
0 0 7.01675e-09 7.38523e-07 0 3.42037e-09 0 1.82236e-09 0 
0 1.73403e-09 0 1.68321e-09 0 0 0 0 0 
0 0 1.2857e-09 0 9.14267e-07 0 0 4.24167e-09 0 
6.97664e-07 0 0 6.86794e-07 4.79736e-09 0 0 4.69909e-09 3.09005e-09 
0 2.25291e-09 4.03264e-09 0 0 0 0 0 0 
0 5.27222e-10 0 0 0 0 0 0 0 
0 0 0 0 0 0 0 0 0 
0 0 0 0 0 0 3.0987e-10 0 0 
0 0 0 0 0 0 0 0 0 
0 0 0 0 0 0 0 0 0 
1.08532e-09 0 0 0 3.86674e-10 0 0 0 0 
1.15708e-09 0 0 0 0 0 7.67076e-07 0 4.38355e-10 
0 0 0 0 0 0 0 0 0 
0 0 0 0 0 0 0 6.17636e-10 0 
0 0 0 0 4.10253e-09 0 6.17015e-09 0 0 
0 0 0 0 0 5.21145e-09 4.78714e-09 0 0 
0 0 0 0 0 0 0 0 0 
0 0 0 0 0 0 0 0 0 
0 0 0 0 0 0 0 0 0 
0 0 0 0 0 3.13168e-09 0 6.25169e-10 0 
0 5.23595e-10 2.83821e-09 8.21233e-10 0 0 0 0 9.92688e-10 
8.52568e-11 0 0 0 0 0 0 0 0 
0 0 2.15731e-09 1.30916e-09 0 0 0 1.1139e-09 2.75777e-09 
3.04898e-09 0 0 0 6.8002e-07 0 0 0 0 
0 0 1.50346e-09 0 0 0 0 0 0 
0 0 7.25795e-10 0 0 0 0 6.19444e-09 0 
1.07085e-09 0 4.16579e-09 0 0 7.78978e-07 0 0 4.97863e-10 
0 0 0 0 0 0 0 0 0 
0 0 0 0 0 0 0 0 0 
0 0 0 0 0 0 0 0 0 
1.1404e-09 0 0 8.7586e-07 8.93482e-07 0 0 1.12334e-10 0 
0 0 0 6.16586e-09 0 0 0 0 0 
2.1888e-09 0 0 1.80292e-09 0 0 0 0 0 
0 0 0 0 0 0 0 8.78227e-07 1.27626e-09 
0 0 0 0 4.57674e-09 1.74341e-09 0 0 6.75069e-07 
0 1.30044e-09 0 0 6.60921e-07 0 0 0 0 
0 0 0 2.39108e-09 1.5667e-09 0 3.3821e-09 0 0 
0 0 6.84447e-07 0 0 0 0 7.67407e-07 0 
0 0 0 0 0 0 0 0 0 
0 0 0 0 0 0 0 0 0 
0 0 0 0 0 0 0 0 0 
0 1.47459e-09 0 0 0 0 5.62546e-09 0 0 
1.88154e-09 1.39223e-09 0 0 0 6.44756e-07 7.59022e-09 2.83476e-09 9.14649e-10 
0 7.71257e-10 0 1.7193e-09 6.51296e-07 2.60667e-09 1.76179e-09 0 0 
6.64141e-10 0 4.41251e-10 0 0 0 0 0 0 
0 0 0 0 4.9582e-09 0 0 0 9.1353e-10 
0 5.28895e-09 0 0 0 0 0 0 0 
1.71869e-09 0 6.59548e-07 0 0 0 2.33293e-09 2.0754e-10 0 
6.83962e-07 0 0 2.82437e-09 0 1.27525e-09 0 0 0 
0 0 0 0 0 0 0 0 0 
0 0 0 0 0 0 0 0 0 
0 0 0 0 0 0 0 0 0 
0 0 8.85843e-10 9.75711e-10 1.89811e-09 0 0 0 0 
0 0 1.31899e-09 4.64215e-10 0 0 0 0 1.72027e-09 
0 0 0 0 0 3.74521e-09 0 0 0 
0 8.67597e-10 0 0 0 0 0 9.92785e-07 1.15628e-06 
1.0497e-06 0 0 1.47686e-09 7.74708e-07 0 0 3.29596e-09 4.26948e-09 
0 0 3.28671e-09 0 0 0 0 0 0 
0 0 2.10199e-09 2.93221e-09 0 4.68452e-10 3.10732e-09 1.10695e-09 0 
1.46539e-09 0 0 0 0 8.2482e-10 0 1.5736e-09 6.92958e-10 
3.17798e-09 0 1.04326e-09 0 0 0 0 0 0 
0 0 0 0 0 0 0 0 0 
0 0 0 0 0 0 0 0 0 
0 0 0 0 0 5.42503e-09 0 0 7.00774e-09 
8.75009e-07 0 0 1.21502e-09 0 0 0 0 0 
0 0 0 0 0 1.07337e-09 1.70688e-09 0 0 
0 0 0 0 0 0 0 0 0 
1.70391e-09 0 0 0 0 0 5.41547e-09 7.35162e-07 0 
0 3.62898e-09 0 0 0 0 0 0 0 
0 3.19757e-10 0 0 0 0 0 0 6.62761e-07 
1.27677e-09 0 0 0 2.84551e-09 1.11587e-09 0 0 0 
0 0 1.67188e-11 0 0 0 0 0 0 
0 0 0 0 0 0 0 0 0 
0 0 0 0 0 0 0 0 0 
0 0 0 0 0 0 0 0 4.23708e-09 
0 8.65154e-07 0 0 0 0 0 1.09981e-09 0 
6.88954e-10 0 0 0 0 0 0 0 9.6906e-10 
0 0 0 0 0 0 0 0 0 
0 2.21599e-09 0 2.04567e-09 0 7.41174e-07 0 0 3.65783e-09 
0 0 0 0 3.78127e-10 0 0 0 0 
0 0 0 0 0 0 0 0 0 
0 0 0 0 0 2.14667e-09 0 0 0 
0 3.38546e-10 0 0 0 0 0 0 0 
0 0 0 0 0 0 0 0 0 
0 0 0 0 0 0 0 0 0 
0 0 0 0 1.23156e-09 0 1.20264e-09 0 0 
0 0 1.78581e-08 0 2.62379e-09 0 0 0 0 
0 0 0 0 0 0 0 0 0 
0 0 0 1.77315e-09 0 0 0 2.19922e-09 0 
4.44988e-09 7.10053e-07 3.02175e-09 0 0 0 6.97228e-09 3.50213e-09 5.39866e-09 
0 0 0 0 8.65173e-07 0 0 0 0 
0 0 0 0 0 0 0 2.92568e-10 0 
1.08061e-09 0 1.63957e-09 0 0 1.8446e-09 2.45648e-09 0 1.1326e-09 
1.23886e-09 4.6651e-10 0 0 0 0 0 0 0 
0 0 0 0 0 0 0 0 0 
0 0 0 0 0 0 0 0 0 
0 0 0 0 0 0 0 0 0 
0 0 1.65593e-09 0 0 0 5.92425e-10 0 0 
0 0 0 0 0 0 0 0 0 
0 0 0 0 0 2.96677e-09 6.4689e-07 5.35405e-09 1.30079e-09 
0 3.75347e-09 0 0 0 1.84777e-09 0 2.45112e-09 0 
0 0 0 0 2.37189e-09 8.61519e-07 0 3.52897e-09 1.57402e-09 
0 0 0 0 0 0 0 0 0 
0 0 0 0 4.04069e-10 7.2525e-10 0 0 2.36742e-09 
0 0 0 0 0 0 0 0 0 
0 0 0 0 0 0 0 0 0 
0 0 0 0 0 0 0 0 0 
0 0 0 0 0 0 0 3.96056e-09 0 
0 1.58893e-09 0 9.96747e-10 0 0 0 0 1.34894e-09 
0 0 0 0 0 0 0 0 0 
0 0 0 0 0 0 0 3.118e-09 0 
0 0 0 2.15301e-09 0 0 0 0 0 
0 0 0 0 0 0 0 0 0 
0 0 0 0 0 0 0 0 0 
0 0 0 0 0 0 1.54728e-09 0 6.52377e-07 
0 1.79728e-09 0 0 0 0 0 0 0 
0 0 0 0 0 0 0 0 0 
0 0 0 0 0 0 0 0 0 
0 0 0 0 0 0 0 0 6.44346e-07 
0 0 9.03705e-10 0 2.15387e-09 3.43534e-09 0 3.87609e-10 9.7896e-10 
9.64961e-10 0 0 0 0 0 0 0 0 
0 0 0 0 0 0 0 0 7.01687e-10 
0 0 0 0 7.20856e-10 0 0 6.63764e-10 0 
0 0 0 0 0 1.40521e-09 0 4.99483e-09 0 
1.96591e-09 0 0 0 4.15894e-09 0 7.14936e-10 7.2463e-10 0 
0 0 0 0 0 0 0 0 3.55669e-09 
1.86284e-09 0 0 0 0 1.46442e-09 0 0 0 
0 0 0 0 0 0 0 0 0 
0 0 0 0 0 0 0 0 0 
0 0 0 0 0 0 0 0 2.11727e-09 
1.44725e-09 0 2.9072e-10 0 0 0 1.02113e-09 0 0 
0 0 0 0 0 0 0 0 0 
0 0 0 0 1.33829e-09 0 0 0 8.80306e-10 
0 0 0 0 0 8.35703e-10 0 0 0 
0 0 0 0 0 0 0 0 0 
0 0 2.33874e-09 0 1.18825e-09 6.82833e-07 0 3.05149e-09 0 
0 0 0 0 0 0 0 0 0 
0 0 0 0 0 0 0 1.29506e-09 0 
0 0 0 0 0 0 0 0 0 
0 0 0 0 0 0 0 0 0 
0 0 0 0 0 0 0 0 0 
0 2.21326e-09 1.64652e-09 1.22019e-09 0 0 0 3.23196e-09 6.59472e-07 
4.47172e-09 0 0 0 0 0 0 0 0 
4.21018e-10 4.15303e-10 0 0 1.85827e-10 1.00818e-09 0 0 0 
0 0 0 0 0 0 0 4.09609e-10 0 
0 0 0 0 0 0 0 0 1.48104e-09 
0 0 2.74957e-09 6.81302e-10 0 0 0 0 3.21435e-09 
0 0 0 0 0 0 0 0 0 
1.28064e-09 0 0 0 0 1.93018e-09 0 0 0 
2.0136e-12 0 0 0 0 0 0 0 0 
0 0 0 0 0 0 0 0 0 
0 0 0 0 0 0 0 0 0 
0 6.8226e-10 0 0 9.84615e-10 0 0 0 0 
0 0 4.48313e-09 0 6.7314e-07 0 0 1.555e-09 0 
0 0 0 0 0 6.06042e-11 0 9.14566e-10 0 
0 0 0 0 8.16071e-10 0 0 2.62509e-09 0 
0 0 0 0 0 0 0 0 0 
0 6.49542e-10 0 0 0 6.79163e-07 6.49467e-09 0 0 
3.92069e-09 0 0 0 0 0 0 0 0 
0 7.28956e-10 2.01598e-09 0 6.52508e-07 4.09137e-09 0 0 2.65278e-09 
0 1.636e-09 0 0 0 0 0 0 0 
0 0 0 0 0 0 0 0 0 
0 0 0 0 0 0 0 0 0 
0 0 0 0 0 0 0 0 0 
0 0 0 0 0 0 0 0 0 
0 0 0 0 3.85478e-09 0 0 2.80288e-09 0 
0 0 2.67846e-09 0 0 0 2.59399e-09 6.45436e-07 0 
4.57957e-09 0 0 0 0 0 0 0 0 
6.47034e-07 4.39697e-09 0 1.18639e-09 0 0 0 0 0 
1.46893e-08 6.6294e-07 0 2.13495e-09 0 0 0 0 0 
0 0 1.18828e-09 0 0 0 0 0 0 
0 0 8.56462e-07 0 0 0 0 0 0 
0 0 0 0 0 0 0 0 0 
0 0 0 0 0 0 0 0 0 
0 0 0 0 0 0 0 0 0 
0 0 0 0 0 0 4.6808e-09 0 0 
1.30678e-09 2.36605e-10 0 0 8.84646e-10 0 6.70988e-07 0 3.6707e-09 
0 0 0 0 0 0 2.26335e-09 5.05782e-10 0 
0 0 4.17297e-10 0 0 0 0 0 0 
0 0 1.41624e-09 0 0 0 3.66795e-09 0 0 
0 0 0 2.6659e-09 0 0 0 0 0 
0 0 0 0 0 0 0 0 7.45395e-10 
0 2.886e-09 0 8.56818e-07 5.13798e-09 0 0 0 0 
0 0 0 0 0 0 0 0 0 
0 0 0 0 0 0 0 0 0 
0 0 0 0 0 0 0 0 1.1485e-09 
0 1.88172e-09 0 0 0 7.77359e-09 6.95474e-07 2.85922e-09 2.61973e-09 
8.79396e-10 2.75765e-09 0 0 0 0 0 0 0 
0 0 0 8.14049e-07 0 1.06826e-09 0 1.83595e-09 0 
0 0 1.29087e-10 0 0 0 0 0 0 
2.27122e-09 0 0 0 0 0 0 0 0 
6.06506e-10 0 0 0 0 0 1.79213e-10 0 0 
0 0 0 0 0 0 1.84706e-09 0 0 
0 0 0 0 0 0 1.38981e-09 0 3.99422e-10 
0 0 0 0 0 0 0 0 0 
0 0 0 0 0 0 0 0 0 
0 0 0 0 0 0 4.01233e-09 1.08471e-09 4.62934e-09 
0 1.17983e-09 0 2.58534e-09 8.11339e-07 0 0 0 2.96951e-09 
6.80745e-10 0 0 0 0 0 0 0 0 
0 0 7.35668e-07 0 2.20436e-09 7.87404e-07 9.07356e-09 0 0 
1.33553e-09 1.86384e-09 0 0 0 0 0 0 0 