# vtk DataFile Version 5.1
vtk output
ASCII
DATASET STRUCTURED_POINTS
DIMENSIONS 100 100 1
SPACING 1 1 1
ORIGIN 0 0 0
POINT_DATA 10000
FIELD FieldData 6
feature_1 1 10000 float
0 0 0 0 0 0 0 0 0 
0 0 0 0 0 0 0 0 0 
0 0 0 0 0 0 0 0 0 
0 0 0 0 0 0 0 0 0 
0 0 0 0 0 0 0 0 0 
0 0 0 0 0 0 0 0 0 
0 0 0 0 0 0 0 0 0 
0 0 0 0 0 0 0 0 0 
0 0 0 0 0 0 0 0 0 
0 0 0 0 0 0 0 0 0 
0 0 0 0 0 0 0 0 0 
0 0 0 0 0 0 0 0 0 
0 0 0 0 0 0 0 0 0 
0 0 0 0 0 0 0 0 0 
0 0 0 0 0 0 0 0 0 
0 0 0 0 0 0 0 0 0 
0 0 0 0 0 0 0 0 0 
0 0 0 0 0 0 0 0 0 
0 0 0 0 0 0 0 0 0 
0 0 0 0 0 0 0 0 0 
0 0 0 0 0 0 0 0 0 
0 0 0 0 0 0 0 0 0 
0 0 0 0 0 0 0 0 0 
0 0 0 0 0 0 0 0 0 
0 0 0 0 0 0 0 0 0 
0 0 0 0 0 0 0 0 0 
0 0 0 0 0 0 0 0 0 
0 0 0 0 0 0 0 0 0 
0 0 0 0 0 0 0 0 0 
0 0 0 0 0 0 0 0 0 
0 0 0 0 0 0 0 0 0 
0 0 0 0 0 0 0 0 0 
0 0 0 0 0 0 0 0 0 
0 0 0 0 0 0 0 0 0 
0 0 0 0 0 0 0 0 0 
0 0 0 0 0 0 0 0 0 
0 0 0 0 0 0 0 0 0 
0 0 0 0 0 0 0 0 0 
0 0 0 0 0 0 0 0 0 
0 0 0 0 0 0 0 0 0 
0 0 0 0 0 0 0 0 0 
0 0 0 0 0 0 0 0 0 
0 0 0 0 0 0 0 0 0 
0 0 0 0 0 0 0 0 0 
0 0 0 0 0 0 0 0 0 
0 0 0 0 0 0 0 0 0 
0 0 0 0 0 0 0 0 0 
0 0 0 0 0 0 0 0 0 
0 0 0 0 0 0 0 0 0 
0 0 0 0 0 0 0 0 0 
0 0 0 0 0 0 0 0 0 
0 0 0 0 0 0 0 0 0 
0 0 0 0 0 0 0 0 0 
0 0 0 0 0 0 0 0 0 
0 0 0 0 0 0 0 0 0 
0 0 0 0 0 0 0 0 0 
0 0 0 0 0 0 0 0 0 
0 0 0 0 0 0 0 0 0 
0 0 0 0 0 0 0 0 0 
0 0 0 0 0 0 0 0 0 
0 0 0 0 0 0 0 0 0 
0 0 0 0 0 0 0 0 0 
0 0 0 0 0 0 0 0 0 
0 0 0 0 0 0 0 0 0 
0 0 0 0 0 0 0 0 0 
0 0 0 0 0 0 0 0 0 
0 0 0 0 0 0 0 0 0 
0 0 0 0 0 0 0 0 0 
0 0 0 0 0 0 0 0 0 
0 0 0 0 0 0 0 0 0 
0 0 0 0 0 0 0 0 0 
0 0 0 0 0 0 0 0 0 
0 0 0 0 0 0 0 0 0 
0 0 0 0 0 0 0 0 0 
0 0 0 0 0 0 0 0 0 
0 0 0 0 0 0 0 0 0 
0 0 0 0 0 0 0 0 0 
0 0 0 0 0 0 0 0 0 
0 0 0 0 0 0 0 0 0 
0 0 0 0 0 0 0 0 0 
0 0 0 0 0 0 0 0 0 
0 0 0 0 0 0 0 0 0 
0 0 0 0 0 0 0 0 0 
0 0 0 0 0 0 0 0 0 
0 0 0 0 0 0 0 0 0 
0 0 0 0 0 0 0 0 0 
0 0 0 0 0 0 0 0 0 
0 0 0 0 0 0 0 0 0 
0 0 0 0 0 0 0 0 0 
0 0 0 0 0 0 0 0 0 
0 0 0 0 0 0 0 0 0 
0 0 0 0 0 0 0 0 0 
0 0 0 0 0 0 0 0 0 
0 0 0 0 0 0 0 0 0 
0 0 0 0 0 0 0 0 0 
0 0 0 0 0 0 0 0 0 
0 0 0 0 0 0 0 0 0 
0 0 0 0 0 0 0 0 0 
0 0 0 0 0 0 0 0 0 
0 0 0 0 0 0 0 0 0 
0 0 0 0 0 0 0 0 0 
0 0 0 0 0 0 0 0 0 
0 0 0 0 0 0 0 0 0 
0 0 0 0 0 0 0 0 0 
0 0 0 0 0 0 0 0 0 
0 0 0 0 0 0 0 0 0 
0 0 0 0 0 0 0 0 0 
0 0 0 0 0 0 0 0 0 
0 0 0 0 0 0 0 0 0 
0 0 0 0 0 0 0 0 0 
0 0 0 0 0 0 0 0 0 
0 0 0 0 0 0 0 0 0 
0 0 0 0 0 0 0 0 0 
0 0 0 0 0 0 0 0 0 
0 0 0 0 0 0 0 0 0 
0 0 0 0 0 0 0 0 0 
0 1.60927e-09 0 0 0 5.58246e-11 0 0 0 
0 0 0 0 0 0 0 2.37983e-09 4.8976e-10 
0 0 0 0 0 0 0 0 0 
0 0 0 0 0 0 0 0 0 
0 0 0 0 0 0 0 0 0 
0 0 0 0 0 0 0 0 0 
0 0 0 0 0 0 0 0 0 
0 0 0 0 0 0 0 0 0 
0 0 0 0 0 0 0 0 0 
0 0 0 0 0 0 0 0 0 
0 0 0 0 0 0 0 0 1.18204e-09 
0 0 0 0 0 0 0 0 0 
0 0 0 0 0 0 0 0 0 
0 0 0 0 0 0 0 0 0 
0 0 0 0 0 0 0 0 0 
0 0 0 0 0 0 0 0 0 
0 0 0 0 0 0 0 0 0 
0 0 0 0 0 0 0 0 0 
0 0 0 0 0 0 0 0 0 
0 0 0 0 0 0 0 0 0 
0 0 0 0 0 0 0 0 0 
0 0 0 0 0 0 0 0 0 
0 0 0 7.92693e-07 6.09175e-09 2.47747e-09 0 1.07268e-09 0 
0 0 0 0 0 0 1.9753e-09 1.1069e-09 6.44926e-07 
1.66193e-09 0 0 0 0 0 0 0 0 
0 0 0 0 0 0 0 0 0 
0 0 0 0 0 0 0 0 0 
0 0 0 0 0 0 0 0 0 
0 0 0 0 0 0 0 0 0 
0 0 0 0 0 0 0 0 0 
0 0 0 0 0 0 0 0 0 
0 0 0 0 4.62458e-10 0 0 0 0 
0 0 0 1.27311e-09 0 0 0 0 0 
3.14804e-09 0 0 8.33406e-07 0 6.54016e-09 0 0 0 
8.24512e-10 0 0 0 0 0 0 0 0 
0 0 1.6969e-09 1.22726e-09 8.40018e-10 0 0 0 0 
0 0 0 0 0 0 0 0 0 
0 1.67118e-09 0 0 0 0 0 0 0 
0 0 0 0 0 0 0 0 0 
0 0 0 0 0 0 0 0 0 
0 0 0 0 0 0 0 0 0 
0 0 0 0 0 0 0 0 0 
0 0 0 0 4.42816e-09 6.46859e-07 0 0 0 
0 0 0 1.677e-09 0 7.55727e-09 0 0 1.33823e-09 
0 0 0 0 0 0 0 0 1.4915e-09 
0 0 0 0 0 0 0 0 0 
0 0 0 0 0 0 0 0 0 
0 0 0 0 0 0 1.10448e-09 0 0 
6.46222e-07 1.37167e-09 0 8.45612e-10 0 0 0 0 0 
0 0 0 0 0 0 0 0 0 
0 0 0 0 0 0 0 0 0 
0 0 0 0 0 0 0 0 0 
0 0 0 0 0 0 0 0 0 
0 0 0 0 0 0 0 0 0 
0 0 0 0 1.00731e-09 3.84937e-09 0 4.363e-09 2.64772e-09 
0 0 0 0 0 0 7.98597e-07 0 0 
9.29346e-10 0 0 0 0 0 0 0 0 
0 0 1.33256e-09 0 0 0 0 0 0 
0 0 0 0 9.9503e-10 0 0 0 0 
0 1.71999e-11 0 0 4.79065e-10 0 0 0 0 
0 0 0 0 0 0 0 0 0 
0 0 0 0 0 0 0 0 0 
0 0 0 0 0 0 0 0 0 
0 0 0 0 0 0 0 0 0 
0 0 0 0 0 0 1.95298e-09 0 0 
6.83811e-10 0 0 4.07635e-10 0 0 2.37583e-09 0 0 
0 0 8.35863e-10 0 0 7.41768e-07 1.19848e-08 0 0 
0 0 6.8963e-07 0 7.76054e-10 9.47115e-10 0 0 0 
0 0 0 0 1.46762e-09 0 1.89021e-09 0 1.43093e-09 
0 2.17032e-09 0 0 0 0 0 0 0 
0 0 0 4.56912e-10 0 0 0 0 0 
0 0 0 0 0 0 0 0 0 
0 0 0 0 0 0 0 0 0 
0 0 0 0 0 0 0 0 0 
0 0 0 0 0 0 0 0 0 
0 0 0 0 0 0 1.18254e-09 5.03834e-09 0 
2.01862e-09 0 0 0 0 0 0 0 1.98721e-09 
1.63703e-09 0 0 0 1.22543e-09 1.73184e-09 0 0 2.24193e-09 
0 0 0 0 0 0 6.69058e-10 0 0 
0 0 0 0 0 0 0 7.19e-07 0 
7.19155e-07 7.98471e-09 0 0 0 0 0 0 6.67365e-07 
0 0 0 0 0 0 0 0 0 
0 0 0 0 0 0 0 0 0 
0 0 0 0 0 0 0 0 0 
0 0 0 0 0 0 0 0 0 
0 0 0 0 0 0 0 0 0 
0 0 0 0 0 3.51738e-09 0 1.42201e-09 0 
0 0 0 0 0 0 0 0 1.77862e-09 
0 0 0 0 0 0 0 0 0 
0 0 0 0 0 0 1.78623e-09 0 0 
0 0 0 0 0 0 0 0 0 
0 0 2.1778e-09 0 0 0 0 1.05711e-09 0 
0 0 2.0168e-09 2.01163e-09 1.32265e-09 0 0 0 0 
0 0 0 0 0 0 0 0 0 
0 0 0 0 0 0 0 0 0 
0 0 0 0 0 0 0 0 0 
0 0 0 0 0 0 0 0 0 
0 0 0 0 0 0 0 1.72009e-09 1.55685e-09 
3.86191e-09 6.49531e-07 0 0 0 0 0 0 0 
0 0 0 0 6.50048e-07 0 0 0 0 
0 8.98393e-07 9.15217e-07 0 1.87534e-09 7.20292e-07 0 0 0 
0 0 0 0 0 0 0 1.86395e-09 0 
0 1.61006e-09 0 0 0 1.34373e-09 0 1.72883e-09 0 
1.93272e-09 0 7.81369e-10 1.33717e-09 1.08243e-09 0 0 0 0 
0 0 0 0 0 0 0 0 0 
0 0 0 0 0 0 0 0 0 
0 0 0 0 0 0 0 0 0 
0 0 0 0 0 0 0 0 0 
0 0 0 6.70759e-10 1.90761e-09 4.2043e-09 6.46937e-07 5.40915e-09 0 
0 2.62705e-09 3.59293e-09 0 0 0 0 0 6.01894e-11 
0 0 0 0 0 0 0 0 1.51454e-09 
0 0 0 0 0 0 1.70066e-09 0 1.0919e-09 
0 0 1.16926e-09 0 0 0 0 0 0 
0 0 0 0 0 0 2.00819e-10 0 0 
0 6.68535e-07 1.05152e-09 0 0 0 0 0 0 
0 0 0 0 0 0 0 1.55547e-09 0 
0 0 0 0 0 0 0 0 0 
0 0 0 0 0 0 0 0 0 
0 0 0 0 0 0 0 0 0 
0 0 0 0 0 1.01104e-09 0 0 5.07657e-09 
1.99666e-09 0 1.4325e-09 0 1.60802e-09 0 0 0 0 
0 8.13803e-10 0 0 0 0 0 0 0 
1.46495e-09 0 0 0 0 0 0 3.1256e-09 0 
1.44853e-09 0 0 0 0 0 0 0 0 
0 0 6.50658e-10 0 0 1.79243e-09 9.4407e-11 0 0 
0 0 0 0 6.7615e-10 0 0 0 1.78984e-09 
0 0 0 0 0 0 1.32089e-09 5.00224e-09 0 
0 0 0 0 0 0 0 0 0 
0 0 0 0 0 0 0 0 0 
0 0 0 0 0 0 0 0 0 
0 0 0 0 0 0 0 0 0 
0 0 0 0 0 0 0 0 0 
0 0 0 0 0 0 0 0 0 
0 0 0 0 0 1.94707e-09 0 0 2.70533e-10 
0 4.93193e-10 0 0 0 0 0 0 0 
0 0 0 0 0 0 0 4.42226e-09 0 
0 0 0 0 0 1.58821e-09 0 0 0 
0 0 0 0 0 0 0 0 0 
7.1897e-07 0 1.85779e-09 1.57833e-09 0 0 0 0 0 
0 0 0 0 0 0 0 0 0 
0 0 0 0 0 0 0 0 0 
0 0 0 0 0 1.36902e-09 0 0 0 
0 0 0 0 0 0 0 1.65454e-09 0 
0 0 7.0427e-10 3.90783e-10 0 0 8.04256e-10 0 0 
2.24556e-10 0 0 0 1.62744e-09 0 0 8.76604e-07 8.73962e-07 
0 0 0 0 0 0 0 0 5.29348e-10 
0 0 0 0 0 0 0 0 6.46635e-07 
0 0 0 2.32416e-10 0 0 0 0 0 
0 6.5495e-07 0 0 0 0 0 0 2.90648e-09 
5.79262e-09 0 0 0 0 0 0 0 0 
0 0 0 0 0 0 0 0 0 
0 0 0 0 0 0 0 0 0 
7.13193e-10 0 0 0 0 0 0 1.10924e-09 0 
0 0 0 0 0 0 0 0 0 
1.20671e-09 0 0 0 0 6.6802e-10 0 0 0 
0 0 0 0 0 1.67667e-09 0 0 3.40318e-09 
0 0 2.18215e-09 1.7075e-10 0 0 6.45889e-07 1.81973e-09 0 
9.93714e-10 0 0 0 0 0 0 2.79294e-09 0 
0 0 0 0 0 0 4.6736e-09 0 0 
0 0 1.36481e-09 2.34493e-10 3.88847e-09 0 1.20356e-09 0 1.14174e-09 
1.50884e-09 0 7.25656e-07 0 0 0 0 0 0 
0 0 0 0 0 0 0 0 0 
0 0 0 0 0 0 0 0 0 
0 0 0 9.62058e-10 1.15976e-09 1.19177e-10 0 0 0 
0 0 0 0 0 0 0 0 0 
0 0 3.01137e-09 0 8.48564e-10 0 9.82714e-10 1.22687e-10 0 
0 0 0 0 0 0 0 1.94528e-09 0 
4.31347e-09 0 0 0 2.50373e-09 0 0 2.61761e-09 8.55144e-10 
0 0 1.16869e-09 0 0 0 0 5.82011e-10 0 
0 0 1.53264e-09 9.65147e-10 0 0 8.98399e-09 6.54662e-07 4.71135e-09 
0 0 0 0 0 0 0 5.7452e-10 0 
0 0 3.8297e-09 0 0 4.34188e-10 0 0 0 
0 0 0 0 0 0 0 0 0 
0 0 0 0 0 0 0 0 0 
0 0 0 0 0 0 0 0 0 
7.18731e-07 0 0 0 0 0 0 0 0 
0 0 4.22757e-09 6.47097e-07 0 0 1.63229e-09 3.73782e-09 6.98944e-07 
0 2.41753e-09 1.57765e-09 0 0 0 0 1.18651e-09 0 
0 0 0 0 1.39386e-09 0 0 0 0 
0 0 0 0 0 0 0 0 6.19402e-10 
0 0 1.17178e-09 0 1.90378e-09 0 0 0 3.08607e-09 
0 0 2.89942e-09 0 0 0 0 1.14276e-09 0 
0 0 0 2.78586e-09 0 0 2.50018e-09 0 0 
0 0 0 0 0 0 0 0 0 
0 0 0 0 0 0 0 0 0 
0 0 0 6.5986e-07 0 0 0 0 7.75503e-07 
0 0 0 0 0 0 0 0 0 
0 0 0 0 0 0 0 0 0 
0 0 7.06237e-07 0 0 3.96834e-09 0 0 0 
0 9.51968e-10 2.82979e-09 0 0 7.17435e-10 0 0 0 
1.19591e-09 0 0 0 0 0 0 0 0 
0 1.07298e-09 0 0 0 0 0 0 0 
0 0 0 0 0 6.56187e-07 0 0 1.42932e-09 
0 5.38997e-10 0 0 6.40557e-10 8.58636e-10 0 1.47215e-09 0 
0 0 0 0 0 0 0 0 0 
0 0 0 0 0 0 0 0 0 
0 0 1.4478e-09 4.05094e-09 0 0 0 0 0 
0 0 3.53542e-09 2.31133e-09 0 0 1.07931e-09 0 0 
0 0 0 0 1.13436e-09 0 0 0 0 
1.59933e-09 0 0 0 0 0 2.18746e-09 6.02852e-09 3.58092e-09 
0 5.92367e-09 7.04332e-07 0 0 2.63624e-10 0 0 0 
0 0 0 0 3.79853e-09 2.89801e-09 4.75464e-09 1.67561e-09 0 
0 0 4.99553e-10 0 0 0 2.05971e-09 0 0 
0 0 2.52017e-09 0 0 0 0 0 0 
0 0 0 0 0 6.73319e-07 0 0 0 
1.87421e-10 0 0 0 0 0 0 0 0 
0 0 0 0 0 0 0 0 0 
0 0 0 0 0 0 1.42806e-09 0 7.11427e-07 
9.19342e-09 1.12812e-09 7.43696e-07 4.81399e-09 2.61087e-09 0 0 0 0 
0 7.40075e-10 0 0 0 0 0 0 0 
0 1.15067e-09 1.43051e-09 0 0 0 0 0 0 
0 0 0 7.27324e-09 0 0 0 0 0 
0 0 0 0 1.3359e-09 0 6.59196e-07 4.622e-09 2.51201e-09 
0 0 0 0 0 0 6.5032e-07 2.29764e-09 1.66594e-09 
0 0 6.76275e-09 3.65745e-09 2.61443e-09 0 0 0 8.88094e-10 
0 0 0 0 0 0 0 0 0 
0 0 0 0 0 0 0 0 0 
0 0 0 0 0 0 0 0 0 
0 0 0 0 0 0 2.13646e-09 2.17969e-09 0 
0 0 0 0 0 6.2468e-10 1.34429e-09 0 2.81117e-09 
0 0 2.81146e-09 1.66595e-09 0 0 0 0 0 
0 0 3.54069e-10 0 0 0 0 0 0 
7.02427e-07 0 0 7.23922e-07 4.69549e-09 0 0 0 0 
0 0 0 0 0 0 0 2.6097e-09 0 
0 0 0 1.70593e-09 1.37303e-09 0 4.5217e-09 0 3.6564e-09 
0 0 4.11516e-09 6.50575e-07 0 0 1.12337e-09 0 1.04824e-09 
0 0 0 0 2.00607e-09 0 0 0 0 
0 0 4.65215e-10 0 0 0 0 0 0 
0 0 0 0 0 0 0 0 0 
0 0 0 0 0 0 0 0 5.56757e-10 
0 0 0 0 0 0 2.01406e-09 3.29066e-09 0 
0 8.71942e-07 0 0 0 0 0 0 0 
0 0 0 0 0 0 0 7.21055e-07 0 
5.64147e-09 0 0 0 0 0 0 0 0 
0 0 0 2.35814e-10 1.635e-09 2.57741e-09 2.12866e-09 3.7867e-09 0 
0 0 0 0 0 0 0 0 0 
0 0 0 0 0 0 0 0 0 
0 0 0 0 0 0 0 6.7607e-07 4.57965e-09 
0 0 0 0 0 0 0 0 0 
0 0 0 0 0 0 0 0 0 
0 0 0 0 0 0 0 0 2.32799e-10 
0 1.26714e-09 1.16205e-09 0 1.68127e-09 0 0 1.87647e-10 0 
3.9363e-09 0 8.8524e-07 0 0 0 0 0 0 
0 0 0 0 0 2.81167e-09 0 5.736e-09 0 
0 0 3.28221e-09 2.95331e-09 0 0 0 0 1.28048e-09 
0 0 0 0 0 0 0 5.20795e-07 7.06532e-10 
0 3.26242e-09 0 0 0 0 2.44915e-09 3.48192e-09 0 
0 0 1.23373e-09 1.89211e-09 0 0 0 0 0 
0 0 0 0 0 0 1.98175e-09 0 0 
0 0 0 0 0 0 0 0 0 
0 0 0 0 0 0 0 0 0 
0 0 0 0 0 0 0 0 0 
0 0 0 0 0 0 7.57039e-10 0 0 
0 0 0 0 0 5.64053e-09 6.84697e-07 4.53063e-09 0 
0 0 0 0 7.42248e-10 0 0 0 0 
0 0 0 0 0 0 0 0 0 
0 0 0 0 0 0 0 0 5.64896e-09 
0 0 0 0 7.48557e-07 0 8.04983e-07 0 0 
0 0 0 0 0 0 0 0 0 
0 0 0 0 0 3.71243e-09 6.5592e-07 0 0 
0 0 0 0 0 0 0 0 0 
0 0 0 0 0 0 0 0 0 
0 0 0 0 0 0 0 0 0 
0 0 0 0 0 0 0 0 0 
2.37075e-09 1.42539e-09 0 0 0 0 1.53182e-09 4.38641e-09 7.40079e-10 
0 1.7704e-09 0 0 0 0 0 0 0 
8.99386e-07 9.13579e-07 0 4.09562e-09 3.74512e-10 9.13653e-11 0 0 4.60593e-09 
0 0 0 0 0 0 0 0 0 
7.12891e-10 1.3702e-09 1.92638e-09 0 0 0 0 3.71168e-09 0 
1.90855e-09 0 0 0 0 9.33725e-10 7.83521e-10 0 0 
0 0 0 0 0 0 2.23907e-09 2.44481e-09 0 
2.671e-09 0 0 0 0 0 0 0 0 
0 0 0 0 0 0 0 0 0 
0 0 0 0 0 0 0 0 0 
0 0 0 0 0 0 0 0 0 
0 0 0 2.41871e-09 0 0 0 0 0 
0 8.07907e-10 0 0 0 0 0 0 2.9728e-09 
0 0 0 0 4.34572e-09 0 0 0 3.44313e-09 
0 0 2.13374e-09 0 3.75284e-09 0 0 0 0 
0 2.65639e-09 0 0 0 0 0 0 3.47036e-09 
8.77689e-07 0 0 7.35661e-07 0 1.3208e-09 1.63554e-09 0 0 
0 0 0 0 0 0 0 0 0 
0 0 0 0 0 0 0 0 0 
0 0 0 0 0 0 0 0 0 
0 0 0 0 0 0 0 0 0 
0 0 0 0 0 0 0 0 0 
0 0 0 3.57682e-09 7.14411e-07 0 9.1331e-09 0 0 
4.15956e-09 3.43835e-09 0 2.19866e-09 0 0 0 0 9.93555e-10 
0 0 0 0 0 0 0 0 0 
0 7.62133e-07 0 0 0 6.58876e-07 0 1.10493e-09 6.66676e-10 
0 8.14091e-10 0 0 1.65908e-09 0 0 0 0 
8.32106e-07 0 0 0 2.91403e-09 0 0 0 0 
0 0 0 0 5.00555e-11 0 0 0 0 
0 0 0 5.57241e-10 4.73699e-10 0 0 0 0 
0 0 0 0 0 0 0 0 0 
0 0 0 0 0 0 0 0 0 
0 0 0 0 0 0 0 0 0 
0 0 8.25257e-10 0 0 0 0 7.79205e-07 4.51071e-09 
0 0 0 6.54202e-07 0 0 1.55232e-09 4.99773e-10 0 
0 1.92788e-09 0 0 7.12569e-07 0 0 0 0 
0 0 1.01255e-08 0 0 0 4.2559e-09 0 1.40094e-09 
0 0 0 0 0 0 6.13986e-10 0 0 
0 0 1.12232e-09 0 7.48224e-07 7.00613e-09 0 0 0 
0 0 0 0 0 0 0 0 0 
0 0 0 0 0 0 0 0 0 
0 0 0 0 0 0 0 0 0 
0 0 0 0 0 0 0 0 0 
0 0 0 0 0 0 0 0 0 
0 0 0 0 0 0 0 0 5.36896e-09 
3.50371e-09 0 0 3.90791e-09 4.62452e-09 0 1.57761e-09 0 0 
0 0 0 0 0 0 0 1.05673e-09 8.42005e-09 
0 8.81059e-07 0 8.21379e-07 2.45225e-09 4.00226e-09 0 0 3.66743e-09 
0 0 0 0 0 0 0 0 0 
0 0 2.30078e-09 0 0 0 0 0 0 
4.74708e-10 0 0 0 0 0 0 0 0 
0 0 0 0 0 0 0 0 0 
0 0 0 0 0 0 0 0 0 
0 0 0 0 0 0 0 0 0 
0 0 0 0 0 0 7.71583e-10 0 0 
0 0 0 0 0 0 1.78398e-09 2.43185e-09 1.01815e-08 
7.33229e-07 0 0 1.32798e-09 0 0 0 1.40303e-09 0 
0 0 0 0 0 0 0 8.95684e-09 0 
0 8.59835e-07 0 0 0 0 0 0 0 
0 0 0 0 0 6.67415e-07 0 3.43611e-09 0 
0 1.5612e-09 0 0 4.27518e-09 0 0 0 0 
0 0 0 0 0 0 0 0 0 
0 0 6.30393e-10 0 0 0 0 0 0 
0 0 0 0 0 0 0 0 0 
0 0 0 0 0 0 0 0 0 
0 0 0 0 0 0 0 6.44164e-07 0 
0 0 0 0 0 0 0 0 0 
0 0 2.04794e-09 0 2.14759e-09 0 2.35425e-09 1.50973e-09 0 
0 0 0 7.5801e-10 0 0 0 0 0 
7.54888e-07 0 0 0 0 0 0 0 0 
0 0 0 1.30547e-09 0 0 5.01822e-09 0 3.08409e-09 
0 0 0 0 0 0 2.40717e-09 0 1.11291e-09 
1.18421e-09 0 0 0 0 0 0 0 0 
0 0 0 0 0 0 0 0 0 
5.87037e-10 0 0 0 0 0 0 0 0 
0 0 0 0 0 0 0 0 0 
0 0 0 0 0 0 2.43845e-09 2.01088e-09 0 
0 0 0 0 0 0 0 0 0 
0 3.15581e-09 0 0 0 0 0 0 0 
0 0 0 0 6.05135e-10 0 0 3.16945e-09 0 
0 0 0 0 0 0 6.00951e-10 9.8111e-10 0 
0 0 0 0 0 0 0 0 0 
4.69043e-09 0 0 8.46265e-07 0 8.4202e-07 9.00298e-09 0 7.12296e-10 
0 0 0 0 0 0 0 0 4.38366e-11 
0 0 0 0 3.49874e-09 0 0 0 0 
2.26605e-09 9.8396e-10 0 0 0 0 0 0 0 
0 0 0 0 0 0 0 0 0 
0 0 0 0 0 0 0 0 0 
0 0 0 0 1.4523e-09 3.04694e-09 0 0 0 
0 0 0 0 0 0 0 0 0 
0 0 0 0 2.69789e-10 0 0 0 0 
1.59593e-09 0 5.0997e-09 0 0 4.05527e-09 0 0 0 
0 0 0 0 6.27651e-10 0 0 0 0 
6.76044e-07 3.0248e-09 0 0 0 8.80394e-07 0 3.77201e-09 2.67303e-09 
0 0 2.44665e-10 0 0 0 0 0 0 
3.7957e-10 0 1.42312e-09 0 4.40649e-09 0 0 0 7.17239e-07 
2.16253e-09 0 0 0 0 0 0 0 0 
0 0 0 0 0 0 0 0 0 
0 0 0 0 0 0 1.02596e-10 0 0 
0 0 7.34421e-10 0 0 0 0 6.44258e-07 0 
0 1.34236e-09 0 0 0 0 0 0 0 
0 0 0 0 6.48378e-07 0 0 0 0 
0 0 0 0 9.07069e-07 8.93495e-07 0 0 0 
0 0 0 0 0 0 0 0 0 
2.65557e-09 8.84959e-09 0 0 0 1.34951e-09 0 0 1.72631e-09 
0 0 0 3.59271e-10 0 0 0 0 0 
1.58114e-09 0 0 0 0 1.22511e-08 7.00011e-07 0 0 
0 0 0 0 0 0 0 0 0 
0 0 0 0 0 0 0 0 0 
0 0 0 0 0 0 0 0 0 
0 0 0 0 0 0 0 1.46091e-09 1.79324e-09 
0 0 0 0 0 0 0 0 0 
2.09482e-10 0 0 0 2.9071e-09 0 0 2.37909e-09 0 
0 0 0 0 0 1.13562e-08 0 0 0 
0 0 0 0 0 0 0 0 0 
0 0 0 0 0 0 0 0 7.75122e-11 
0 0 0 0 0 0 0 0 0 
0 0 1.76511e-09 0 0 0 0 1.98232e-09 0 
5.04521e-09 0 7.11485e-07 0 0 0 0 0 0 
0 0 0 0 0 0 0 0 0 
0 0 0 0 0 0 0 0 0 
2.07196e-10 4.58299e-10 0 0 7.71981e-10 0 0 0 0 
1.28754e-09 0 0 0 0 0 0 0 0 
0 0 0 0 0 2.50089e-09 0 0 6.29867e-10 
0 0 0 0 1.01647e-09 0 0 0 3.52822e-09 
3.19423e-10 0 0 0 0 0 0 0 0 
0 0 0 0 0 0 1.80686e-09 0 2.97458e-09 
2.54809e-09 0 0 0 0 0 0 0 0 
0 0 0 0 0 0 6.87759e-07 1.11652e-09 1.45241e-09 
0 0 3.49509e-09 2.4013e-09 0 0 0 0 0 
0 0 0 0 0 0 0 0 0 
0 0 0 0 0 0 0 0 0 
0 0 0 0 0 0 0 0 0 
0 0 0 5.62657e-10 0 0 0 0 0 
0 0 0 9.82189e-10 0 0 0 1.97191e-09 1.41461e-09 
0 0 0 0 1.97004e-09 8.64648e-09 6.77671e-07 0 0 
1.48438e-09 0 9.5501e-10 0 0 0 0 0 0 
0 0 0 0 0 0 8.80814e-10 0 0 
0 0 0 0 0 0 3.92334e-09 3.12831e-09 0 
0 0 0 6.54384e-07 0 1.86788e-09 7.60151e-10 0 0 
3.57709e-09 0 0 0 0 2.54776e-09 0 0 0 
0 0 0 0 0 0 0 0 0 
0 0 0 0 0 0 0 0 0 
0 0 0 1.51071e-09 0 2.00878e-09 0 0 0 
1.19653e-09 0 0 0 0 0 0 0 0 
0 0 0 0 0 0 6.48234e-07 0 0 
0 0 0 0 0 0 0 0 3.36678e-09 
0 0 1.02231e-09 0 0 0 0 0 0 
0 0 0 0 0 0 0 0 0 
0 0 0 0 0 2.56604e-09 6.10514e-09 6.49529e-07 0 
0 0 0 0 8.45028e-09 3.8859e-09 0 0 0 
0 1.50458e-09 0 0 0 0 0 1.15323e-09 1.63242e-09 
0 4.53065e-10 0 0 0 0 0 0 0 
0 0 0 0 0 0 0 0 0 
0 0 0 0 0 8.56243e-10 6.44461e-07 4.53389e-09 3.57614e-09 
0 0 0 0 0 0 0 0 0 
0 0 0 0 0 1.01109e-09 1.81406e-09 0 0 
0 0 0 0 0 0 9.01057e-10 1.25637e-09 0 
2.69507e-09 0 0 0 0 0 0 6.77657e-07 0 
0 7.53517e-10 0 0 0 0 0 0 0 
0 0 0 0 4.22507e-09 0 0 2.93777e-09 0 
0 0 0 7.54213e-10 0 0 0 0 0 
0 0 0 3.62863e-09 0 0 0 6.60464e-07 0 
0 0 5.55233e-10 0 0 0 0 0 0 
0 0 0 0 0 0 0 0 0 
0 0 0 0 9.80789e-10 0 0 0 2.44671e-09 
0 0 0 0 0 0 0 0 0 
0 6.46357e-10 0 0 0 0 0 0 5.97577e-10 
0 8.75426e-10 0 0 0 0 0 0 3.97797e-10 
0 0 0 0 4.18979e-10 0 2.41892e-09 0 0 
0 0 0 0 0 0 0 0 0 
0 0 0 0 0 6.48654e-07 4.42525e-09 4.47889e-09 0 
0 0 0 0 0 1.05998e-09 0 0 0 
3.39582e-09 0 6.5714e-07 3.21765e-09 0 1.94338e-09 0 1.80752e-09 0 
0 0 0 0 0 0 0 0 0 
0 0 0 0 0 0 0 0 0 
0 0 0 0 0 0 0 0 0 
1.52209e-09 6.41344e-10 0 0 0 0 0 0 0 
0 0 0 0 6.24021e-10 0 0 0 0 
0 0 1.11332e-09 0 0 0 0 7.72933e-10 0 
0 0 0 1.46977e-09 0 0 0 9.68297e-10 3.83094e-09 
0 0 0 9.85935e-07 9.13968e-07 0 0 5.03966e-10 0 
0 0 0 0 0 0 0 0 0 
1.06243e-09 8.75403e-10 0 0 0 0 7.71831e-10 0 0 
0 0 0 0 0 0 0 0 0 
0 0 0 0 0 0 0 0 0 
0 0 0 0 0 0 0 0 0 
0 0 0 0 0 0 0 0 0 
1.23402e-09 0 0 0 0 0 0 0 0 
0 0 0 0 0 0 1.2171e-09 1.14737e-09 0 
0 0 0 0 0 0 0 4.86028e-10 0 
0 0 0 0 0 0 0 0 0 
0 0 0 8.31265e-07 0 0 6.80098e-09 0 0 
4.57833e-10 4.28773e-10 0 0 0 0 0 8.55945e-10 9.69274e-10 
0 0 0 0 0 0 0 0 0 
2.97563e-09 8.6285e-10 1.86122e-09 0 0 0 1.07012e-09 0 0 
0 0 1.84524e-09 0 0 0 0 0 0 
0 0 0 0 0 0 0 0 0 
0 0 0 0 0 0 0 0 5.78207e-10 
0 0 0 0 0 0 0 0 0 
0 0 0 0 0 0 1.9167e-09 0 0 
0 0 5.55243e-10 0 0 0 4.19847e-09 6.47272e-07 0 
0 0 0 0 1.62031e-09 0 0 0 0 
6.70691e-07 0 3.54655e-09 0 0 0 0 0 0 
0 0 0 0 0 0 0 0 0 
0 0 0 0 0 0 0 0 4.67615e-09 
6.66144e-07 0 0 1.47166e-09 1.1988e-09 0 0 0 0 
1.78625e-09 6.56907e-07 0 0 0 0 0 0 0 
0 0 0 0 0 0 0 0 0 
0 0 0 0 0 0 0 0 2.28117e-10 
0 0 0 5.91634e-09 0 0 0 0 0 
0 0 0 0 0 5.87965e-09 6.78882e-07 0 0 
0 0 0 1.13289e-09 0 0 0 3.38762e-09 0 
2.68459e-09 0 0 0 0 0 0 1.77907e-09 0 
0 6.15106e-09 0 0 0 0 0 3.55789e-09 3.75469e-10 
0 6.07909e-10 0 0 0 0 0 0 0 
0 0 0 0 0 0 0 0 0 
0 0 0 2.59717e-09 0 0 0 0 2.15961e-09 
0 1.12409e-08 0 0 0 0 0 0 0 
0 0 0 0 0 0 0 0 0 
0 0 0 0 0 0 0 0 0 
0 0 0 6.44118e-07 0 0 0 0 0 
0 0 0 0 6.79506e-07 0 0 0 5.5154e-09 
0 0 0 6.07217e-10 0 0 0 3.48939e-09 0 
1.94143e-09 2.09209e-09 0 0 0 0 1.14357e-09 1.15906e-09 6.56477e-07 
4.64696e-09 3.36585e-09 0 0 0 0 0 1.95044e-09 0 
0 0 0 0 0 0 8.2052e-10 0 0 
0 0 0 0 0 0 0 0 1.6407e-09 
0 0 0 0 0 2.12256e-09 0 0 5.26782e-09 
0 0 2.29316e-09 0 0 0 0 0 0 
0 0 0 0 0 0 0 0 0 
0 0 0 0 0 0 0 0 0 
0 0 0 0 2.09647e-09 0 0 0 1.20393e-09 
0 0 0 0 0 0 0 0 0 
0 2.0075e-09 0 1.65989e-09 0 0 3.75925e-09 0 0 
2.19903e-09 0 0 9.28931e-10 0 0 0 0 0 
1.04049e-09 2.44774e-09 1.20124e-09 0 0 0 0 0 0 
0 0 1.50356e-09 6.68024e-07 4.83208e-09 0 0 7.70727e-10 0 
0 0 0 0 0 0 0 0 0 
0 0 0 0 0 1.506e-09 0 2.3098e-09 0 
6.52355e-07 0 0 0 2.15936e-09 1.14145e-09 0 0 0 
0 0 0 0 0 0 0 0 0 
0 0 0 0 0 0 0 0 0 
0 0 0 1.00766e-09 0 0 0 0 9.44976e-10 
0 0 0 2.75478e-09 0 0 0 0 1.87455e-09 
2.22774e-09 2.43832e-09 7.37955e-07 3.51813e-09 0 0 0 6.63286e-07 2.30906e-09 
0 0 0 6.18389e-10 0 2.73801e-09 0 0 0 
9.24553e-10 1.98547e-09 0 2.06505e-10 0 0 0 0 0 
0 0 0 0 0 0 0 0 8.74019e-10 
0 0 0 0 0 0 0 0 0 
0 0 0 9.83089e-07 1.08411e-06 0 0 0 0 
0 0 0 0 0 0 0 0 0 
0 0 0 0 0 0 0 0 0 
0 0 0 0 0 0 0 0 0 
0 0 0 0 0 0 0 0 0 
0 7.35378e-10 0 0 0 7.0804e-07 2.144e-09 0 1.80188e-09 
0 0 4.03117e-09 1.06541e-09 0 0 0 0 2.18385e-09 
2.14101e-09 0 0 0 0 6.71983e-07 1.98772e-09 1.19205e-09 1.60327e-09 
0 0 0 0 0 0 0 0 0 
6.26034e-10 0 0 0 0 0 4.00628e-09 0 6.16492e-10 
0 0 0 0 0 0 0 0 0 
0 0 0 0 0 9.49347e-07 0 0 3.97146e-09 
1.73901e-09 0 0 0 0 7.38789e-10 0 0 7.66588e-07 
0 0 1.51995e-09 0 0 0 0 0 0 
0 0 0 0 0 0 0 0 0 
0 0 0 0 0 0 0 0 0 
0 0 0 0 0 0 1.41903e-09 0 1.04996e-09 
0 0 0 0 7.43691e-07 0 2.24132e-09 0 3.09053e-09 
0 0 0 3.99714e-09 0 0 0 0 0 
2.15095e-09 0 9.8805e-11 0 0 0 0 0 0 
0 0 0 0 0 0 0 6.80428e-07 0 
0 1.8354e-09 3.282e-10 0 0 0 0 0 0 
0 0 0 1.21056e-09 0 0 0 0 0 
2.29909e-09 3.5599e-09 0 0 0 0 0 0 0 
0 7.70149e-07 0 0 0 0 0 0 0 
0 0 0 0 0 0 0 0 0 
0 0 0 0 0 0 0 0 0 
0 0 0 0 0 6.54936e-09 6.95927e-07 3.31858e-09 0 
4.08986e-09 0 0 1.94095e-09 0 0 0 0 1.62869e-09 
0 0 3.68954e-09 6.64487e-07 9.64217e-10 1.07791e-09 0 1.67595e-09 0 
0 0 1.29014e-09 0 1.75465e-09 0 1.00895e-09 0 0 
0 0 2.29417e-09 7.63238e-07 8.19602e-09 0 0 0 0 
1.9023e-09 0 7.64518e-09 0 6.91932e-10 0 0 1.01639e-09 1.10687e-09 
0 0 1.28203e-09 0 0 0 0 4.31422e-09 1.16637e-09 
0 6.68357e-07 3.77486e-09 1.96569e-09 0 9.92174e-10 0 0 0 
0 0 0 3.21541e-09 0 0 0 0 0 
0 0 0 0 0 0 0 0 0 
0 0 0 0 0 0 0 0 0 
0 0 0 0 0 0 3.01664e-09 0 0 
0 0 0 3.90975e-10 0 0 6.89526e-10 0 2.50697e-09 
0 0 0 0 0 1.01646e-08 0 1.69677e-09 0 
6.72036e-07 0 2.37182e-09 0 0 3.05994e-09 0 0 0 
0 0 0 0 0 7.66101e-07 0 1.52598e-09 0 
0 0 0 4.40121e-09 0 0 2.58793e-09 1.37977e-09 0 
0 3.50913e-10 0 0 0 0 0 0 0 
0 2.74006e-09 0 1.4824e-09 0 0 0 0 0 
0 0 0 0 2.70942e-09 0 0 0 0 
0 0 0 0 0 0 0 0 0 
0 0 0 0 0 0 0 0 0 
0 0 0 0 0 0 0 0 0 
0 1.42916e-09 0 0 0 0 0 0 6.74598e-07 
0 0 1.96073e-09 2.12563e-09 1.08923e-09 0 0 3.98074e-09 0 
0 0 0 0 0 0 6.62037e-07 0 0 
0 0 0 1.48245e-09 0 0 0 0 0 
0 0 0 0 0 9.63903e-07 1.66557e-09 0 0 
0 0 3.05935e-09 0 6.55598e-07 0 0 0 0 
0 1.80948e-09 2.76105e-09 0 0 0 0 0 0 
0 0 4.82007e-09 0 0 0 0 8.18099e-10 0 
0 0 0 0 0 0 0 0 0 
0 0 0 0 0 0 0 0 0 
0 0 0 0 0 0 0 0 0 
0 0 0 0 0 0 0 0 0 
0 0 0 0 0 0 0 0 0 
0 6.78513e-10 0 1.30895e-09 0 0 0 0 0 
1.65733e-09 1.093e-09 0 0 0 0 1.94989e-09 0 0 
0 0 0 0 0 0 0 0 0 
0 0 0 0 0 4.10183e-09 2.74668e-09 0 0 
0 0 0 0 0 0 1.00001e-09 0 0 
3.34816e-09 0 0 5.07901e-09 8.23393e-07 0 0 0 0 
0 0 0 0 0 0 0 0 0 
0 0 0 0 0 0 0 0 0 
0 0 0 0 0 0 0 0 0 
0 1.07813e-09 0 0 0 0 0 4.93654e-10 0 
0 0 0 2.41258e-09 0 0 0 0 0 
0 0 1.69085e-09 0 0 3.44975e-09 2.77892e-09 0 2.51112e-09 
0 1.72526e-09 1.39406e-09 0 0 0 0 0 0 
0 0 0 0 0 0 0 1.00377e-06 9.81158e-09 
0 0 0 0 2.09816e-09 0 0 0 2.63266e-09 
0 5.90629e-10 0 2.42908e-09 0 0 0 0 0 
0 0 3.71955e-09 0 9.82877e-07 0 0 0 0 
0 0 0 0 0 0 0 0 0 
0 0 0 0 0 0 0 0 0 
0 0 0 0 0 0 0 0 1.81148e-09 
6.64204e-09 0 1.3548e-09 0 0 0 0 0 6.51321e-07 
4.29033e-09 0 0 1.74226e-09 0 0 2.13722e-09 0 6.07638e-10 
0 0 0 0 0 1.14112e-09 0 6.72117e-07 0 
0 0 0 0 0 0 0 0 0 
6.93944e-10 0 0 0 2.73614e-09 0 0 0 9.42448e-07 
0 0 0 0 7.48246e-07 0 0 6.11405e-11 0 
0 0 0 0 0 0 0 1.72759e-09 0 
0 6.77707e-07 1.33809e-09 0 0 9.19306e-07 0 0 0 
1.11101e-09 0 0 0 0 0 0 0 0 
0 0 0 0 0 0 0 0 0 
0 0 0 0 0 0 0 0 0 
0 0 0 6.36952e-10 2.36896e-10 0 1.3391e-09 0 0 
2.8157e-09 2.07912e-09 0 1.24321e-09 0 0 0 0 0 
0 0 0 0 0 0 0 0 9.29673e-10 
0 1.30905e-09 2.55405e-09 0 0 2.42784e-09 0 0 0 
1.25473e-09 0 0 2.04766e-09 0 1.02759e-09 1.49382e-09 0 0 
6.28925e-09 0 0 9.49898e-07 0 1.4452e-09 0 3.78774e-09 0 
0 4.37016e-09 0 1.84879e-09 3.53124e-09 0 6.65656e-07 0 0 
1.74745e-09 0 4.02559e-09 1.47063e-09 3.72333e-09 0 0 0 0 
0 0 4.97248e-10 0 0 0 0 0 0 
0 0 0 0 0 0 0 0 0 
0 0 0 0 0 0 0 0 0 
0 5.47493e-09 6.77236e-07 5.61333e-09 0 6.55823e-10 0 0 0 
0 0 3.13564e-09 0 0 0 6.10599e-10 1.17208e-09 6.52206e-07 
0 1.32721e-09 0 0 0 0 0 0 0 
0 0 6.95917e-09 7.38526e-07 0 3.53655e-09 0 1.74823e-09 0 
0 1.71458e-09 0 1.63347e-09 0 0 0 0 0 
0 0 1.36274e-09 0 9.14214e-07 0 0 4.16475e-09 0 
6.97582e-07 0 0 6.86709e-07 4.69016e-09 0 0 4.6605e-09 3.03336e-09 
0 2.22769e-09 3.89477e-09 0 0 0 0 0 0 
0 5.79636e-10 0 0 0 0 0 0 0 
0 0 0 0 0 0 0 0 0 
0 0 0 0 0 0 3.07641e-10 0 0 
0 0 0 0 0 0 0 0 0 
0 0 0 0 0 0 0 0 0 
1.04884e-09 0 0 0 3.35236e-10 0 0 0 0 
1.0858e-09 0 0 0 0 0 7.66971e-07 0 5.90693e-10 
0 0 0 0 0 0 0 0 0 
0 0 0 0 0 0 0 6.81658e-10 0 
0 0 0 0 4.15208e-09 0 6.11163e-09 0 0 
0 0 0 0 0 5.18481e-09 4.6098e-09 0 0 
0 0 0 0 0 0 0 0 0 
0 0 0 0 0 0 0 0 0 
0 0 0 0 0 0 0 0 0 
0 0 0 0 0 3.17454e-09 0 7.09147e-10 0 
0 6.013e-10 2.85184e-09 8.5957e-10 0 0 0 0 9.71496e-10 
1.4662e-10 0 0 0 0 0 0 0 0 
0 0 2.33302e-09 1.25276e-09 0 0 0 1.18011e-09 2.7536e-09 
3.04117e-09 0 0 0 6.8003e-07 0 0 0 0 
0 0 1.45322e-09 0 0 0 0 0 0 
0 0 7.51266e-10 0 0 0 0 6.19823e-09 0 
1.10708e-09 0 4.2053e-09 0 0 7.79013e-07 0 0 4.00534e-10 
0 0 0 0 0 0 0 0 0 
0 0 0 0 0 0 0 0 0 
0 0 0 0 0 0 0 0 0 
1.18195e-09 0 0 8.75931e-07 8.93403e-07 0 0 1.93194e-10 0 
0 0 0 6.10716e-09 0 0 0 0 0 
2.13857e-09 0 0 1.71637e-09 0 0 0 0 0 
0 0 0 0 0 0 0 8.78187e-07 1.32503e-09 
0 0 0 0 4.62411e-09 1.72039e-09 0 0 6.75091e-07 
0 1.31599e-09 0 0 6.60896e-07 0 0 0 0 
0 0 0 2.40594e-09 1.61598e-09 0 3.40156e-09 0 0 
0 0 6.84472e-07 0 0 0 0 7.67305e-07 0 
0 0 0 0 0 0 0 0 0 
0 0 0 0 0 0 0 0 0 
0 0 0 0 0 0 0 0 0 
0 1.51472e-09 0 0 0 0 5.65034e-09 0 0 
1.94483e-09 1.48847e-09 0 0 0 6.44702e-07 7.53163e-09 2.87705e-09 8.33824e-10 
0 7.17126e-10 0 1.75026e-09 6.51362e-07 2.70261e-09 1.82337e-09 0 0 
5.31426e-10 0 3.90832e-10 0 0 0 0 0 0 
0 0 0 0 4.87587e-09 0 0 0 9.19675e-10 
0 5.36223e-09 0 0 0 0 0 0 0 
1.76302e-09 0 6.59454e-07 0 0 0 2.34137e-09 3.5105e-10 0 
6.83946e-07 0 0 2.80031e-09 0 1.31174e-09 0 0 0 
0 0 0 0 0 0 0 0 0 
0 0 0 0 0 0 0 0 0 
0 0 0 0 0 0 0 0 0 
0 0 8.80878e-10 9.91883e-10 1.87361e-09 0 0 0 0 
0 0 1.36052e-09 4.88681e-10 0 0 0 0 1.76395e-09 
0 0 0 0 0 3.6059e-09 0 0 0 
0 8.14034e-10 0 0 0 0 0 9.92761e-07 1.15628e-06 
1.04967e-06 0 0 1.5561e-09 7.74638e-07 0 0 3.21423e-09 4.28125e-09 
0 0 3.21607e-09 0 0 0 0 0 0 
0 0 2.08784e-09 2.83461e-09 0 5.29418e-10 3.18456e-09 1.09908e-09 0 
1.42407e-09 0 0 0 0 7.55372e-10 0 1.53061e-09 7.34548e-10 
3.21406e-09 0 1.02797e-09 0 0 0 0 0 0 
0 0 0 0 0 0 0 0 0 
0 0 0 0 0 0 0 0 0 
0 0 0 0 0 5.3675e-09 0 0 7.00353e-09 
8.7512e-07 0 0 1.30791e-09 0 0 0 0 0 
0 0 0 0 0 1.04842e-09 1.64887e-09 0 0 
0 0 0 0 0 0 0 0 0 
1.82376e-09 0 0 0 0 0 5.51634e-09 7.35048e-07 0 
0 3.65676e-09 0 0 0 0 0 0 0 
0 4.42128e-10 0 0 0 0 0 0 6.62788e-07 
1.37986e-09 0 0 0 2.82277e-09 1.19011e-09 0 0 0 
0 0 5.34024e-11 0 0 0 0 0 0 
0 0 0 0 0 0 0 0 0 
0 0 0 0 0 0 0 0 0 
0 0 0 0 0 0 0 0 4.15343e-09 
0 8.65035e-07 0 0 0 0 0 1.1652e-09 0 
8.42248e-10 0 0 0 0 0 0 0 1.06519e-09 
0 0 0 0 0 0 0 0 0 
0 2.0506e-09 0 2.07773e-09 0 7.41095e-07 0 0 3.75218e-09 
0 0 0 0 3.51844e-10 0 0 0 0 
0 0 0 0 0 0 0 0 0 
0 0 0 0 0 2.09354e-09 0 0 0 
0 3.11279e-10 0 0 0 0 0 0 0 
0 0 0 0 0 0 0 0 0 
0 0 0 0 0 0 0 0 0 
0 0 0 0 1.14874e-09 0 1.16482e-09 0 0 
0 0 1.78665e-08 0 2.51519e-09 0 0 0 0 
0 0 0 0 0 0 0 0 0 
0 0 0 1.67119e-09 0 0 0 2.28445e-09 0 
4.48521e-09 7.1009e-07 2.93588e-09 0 0 0 6.96598e-09 3.5371e-09 5.38158e-09 
0 0 0 0 8.65319e-07 0 0 0 0 
0 0 0 0 0 0 0 3.34514e-10 0 
1.11835e-09 0 1.54307e-09 0 0 1.88199e-09 2.43713e-09 0 1.06741e-09 
1.15694e-09 3.67989e-10 0 0 0 0 0 0 0 
0 0 0 0 0 0 0 0 0 
0 0 0 0 0 0 0 0 0 
0 0 0 0 0 0 0 0 0 
0 0 1.70887e-09 0 0 0 6.73095e-10 0 0 
0 0 0 0 0 0 0 0 0 
0 0 0 0 0 2.94583e-09 6.46933e-07 5.42432e-09 1.28338e-09 
0 3.8375e-09 0 0 0 1.83934e-09 0 2.30132e-09 0 
0 0 0 0 2.42464e-09 8.61482e-07 0 3.53247e-09 1.58223e-09 
0 0 0 0 0 0 0 0 0 
0 0 0 0 4.05833e-10 6.48652e-10 0 0 2.41171e-09 
0 0 0 0 0 0 0 0 0 
0 0 0 0 0 0 0 0 0 
0 0 0 0 0 0 0 0 0 
0 0 0 0 0 0 0 3.99396e-09 0 
0 1.49849e-09 0 9.7966e-10 0 0 0 0 1.31325e-09 
0 0 0 0 0 0 0 0 0 
0 0 0 0 0 0 0 3.16807e-09 0 
0 0 0 2.13118e-09 0 0 0 0 0 
0 0 0 0 0 0 0 0 0 
0 0 0 0 0 0 0 0 0 
0 0 0 0 0 0 1.59654e-09 0 6.52489e-07 
0 1.84112e-09 0 0 0 0 0 0 0 
0 0 0 0 0 0 0 0 0 
0 0 0 0 0 0 0 0 0 
0 0 0 0 0 0 0 0 6.44339e-07 
0 0 9.09864e-10 0 2.1524e-09 3.38588e-09 0 4.34843e-10 9.46705e-10 
9.7042e-10 0 0 0 0 0 0 0 0 
0 0 0 0 0 0 0 0 6.46217e-10 
0 0 0 0 7.70405e-10 0 0 6.34223e-10 0 
0 0 0 0 0 1.31962e-09 0 4.98459e-09 0 
1.952e-09 0 0 0 4.11702e-09 0 6.91007e-10 8.01928e-10 0 
0 0 0 0 0 0 0 0 3.51425e-09 
1.96973e-09 0 0 0 0 1.54284e-09 0 0 0 
0 0 0 0 0 0 0 0 0 
0 0 0 0 0 0 0 0 0 
0 0 0 0 0 0 0 0 2.06945e-09 
1.40681e-09 0 3.73122e-10 0 0 0 1.00981e-09 0 0 
0 0 0 0 0 0 0 0 0 
0 0 0 0 1.20396e-09 0 0 0 9.42534e-10 
0 0 0 0 0 8.10932e-10 0 0 0 
0 0 0 0 0 0 0 0 0 
0 0 2.37094e-09 0 1.24886e-09 6.8279e-07 0 2.95401e-09 0 
0 0 0 0 0 0 0 0 0 
0 0 0 0 0 0 0 1.32704e-09 0 
0 0 0 0 0 0 0 0 0 
0 0 0 0 0 0 0 0 0 
0 0 0 0 0 0 0 0 0 
0 2.16005e-09 1.64922e-09 1.21731e-09 0 0 0 3.10624e-09 6.59437e-07 
4.57571e-09 0 0 0 0 0 0 0 0 
4.69402e-10 2.91818e-10 0 0 2.61077e-10 9.91442e-10 0 0 0 
0 0 0 0 0 0 0 3.85261e-10 0 
0 0 0 0 0 0 0 0 1.43221e-09 
0 0 2.64223e-09 6.77354e-10 0 0 0 0 3.19722e-09 
0 0 0 0 0 0 0 0 0 
1.18329e-09 0 0 0 0 1.9318e-09 0 0 0 
0 0 0 0 0 0 0 0 0 
0 0 0 0 0 0 0 0 0 
0 0 0 0 0 0 0 0 0 
0 7.09679e-10 0 0 8.73028e-10 0 0 0 0 
0 0 4.36564e-09 0 6.73148e-07 0 0 1.5015e-09 0 
0 0 0 0 0 8.77303e-11 0 8.67356e-10 0 
0 0 0 0 8.88946e-10 0 0 2.56802e-09 0 
0 0 0 0 0 0 0 0 0 
0 6.22624e-10 0 0 0 6.79192e-07 6.43672e-09 0 0 
4.03777e-09 0 0 0 0 0 0 0 0 
0 7.16165e-10 2.14735e-09 0 6.52506e-07 4.12997e-09 0 0 2.67908e-09 
0 1.74487e-09 0 0 0 0 0 0 0 
0 0 0 0 0 0 0 0 0 
0 0 0 0 0 0 0 0 0 
0 0 0 0 0 0 0 0 0 
0 0 0 0 0 0 0 0 0 
0 0 0 0 3.73969e-09 0 0 2.66802e-09 0 
0 0 2.76151e-09 0 0 0 2.70865e-09 6.4546e-07 0 
4.52432e-09 0 0 0 0 0 0 0 0 
6.47134e-07 4.49364e-09 0 1.26649e-09 0 0 0 0 0 
1.48362e-08 6.6302e-07 0 2.17485e-09 0 0 0 0 0 
0 0 1.05509e-09 0 0 0 0 0 0 
0 0 8.56545e-07 0 0 0 0 0 0 
0 0 0 0 0 0 0 0 0 
0 0 0 0 0 0 0 0 0 
0 0 0 0 0 0 0 0 0 
0 0 0 0 0 0 4.78788e-09 0 0 
1.3798e-09 2.19557e-10 0 0 7.25044e-10 0 6.70873e-07 0 3.67745e-09 
0 0 0 0 0 0 2.27395e-09 4.94659e-10 0 
0 0 4.78083e-10 0 0 0 0 0 0 
0 0 1.40353e-09 0 0 0 3.51632e-09 0 0 
0 0 0 2.67543e-09 0 0 0 0 0 
0 0 0 0 0 0 0 0 8.56353e-10 
0 2.80006e-09 0 8.56803e-07 5.16103e-09 0 0 0 0 
0 0 0 0 0 0 0 0 0 
0 0 0 0 0 0 0 0 0 
0 0 0 0 0 0 0 0 1.22985e-09 
0 1.97136e-09 0 0 0 7.66617e-09 6.95462e-07 2.76432e-09 2.69078e-09 
9.36558e-10 2.65445e-09 0 0 0 0 0 0 0 
0 0 0 8.14079e-07 0 1.12537e-09 0 1.95298e-09 0 
0 0 2.62671e-10 0 0 0 0 0 0 
2.18112e-09 0 0 0 0 0 0 0 0 
7.20528e-10 0 0 0 0 0 1.43317e-10 0 0 
0 0 0 0 0 0 1.80018e-09 0 0 
0 0 0 0 0 0 1.29012e-09 0 4.05411e-10 
0 0 0 0 0 0 0 0 0 
0 0 0 0 0 0 0 0 0 
0 0 0 0 0 0 3.93728e-09 1.11853e-09 4.65234e-09 
0 1.15334e-09 0 2.615e-09 8.11409e-07 0 0 0 3.04588e-09 
5.56216e-10 0 0 0 0 0 0 0 0 
0 0 7.35696e-07 0 2.26932e-09 7.87389e-07 9.09504e-09 0 0 
1.4342e-09 1.95101e-09 0 0 0 0 0 0 0 
0 0 0 4.01189e-10 0 0 0 0 0 