# vtk DataFile Version 5.1
vtk output
ASCII
DATASET STRUCTURED_POINTS
DIMENSIONS 100 100 1
SPACING 1 1 1
ORIGIN 0 0 0
POINT_DATA 10000
FIELD FieldData 6
feature_1 1 10000 float
0 0 0 0 0 0 0 0 0 
0 0 0 0 0 0 0 0 0 
0 0 0 0 0 0 0 0 0 
0 0 0 0 0 0 0 0 0 
0 0 0 0 0 0 0 0 0 
0 0 0 0 0 0 0 0 0 
0 0 0 0 0 0 0 0 0 
0 0 0 0 0 0 0 0 0 
0 0 0 0 0 0 0 0 0 
0 0 0 0 0 0 0 0 0 
0 0 0 0 0 0 0 0 0 
0 0 0 0 0 0 0 0 0 
0 0 0 0 0 0 0 0 0 
0 0 0 0 0 0 0 0 0 
0 0 0 0 0 0 0 0 0 
0 0 0 0 0 0 0 0 0 
0 0 0 0 0 0 0 0 0 
0 0 0 0 0 0 0 0 0 
0 0 0 0 0 0 0 0 0 
0 0 0 0 0 0 0 0 0 
0 0 0 0 0 0 0 0 0 
0 0 0 0 0 0 0 0 0 
0 0 0 0 0 0 0 0 0 
0 0 0 0 0 0 0 0 0 
0 0 0 0 0 0 0 0 0 
0 0 0 0 0 0 0 0 0 
0 0 0 0 0 0 0 0 0 
0 0 0 0 0 0 0 0 0 
0 0 0 0 0 0 0 0 0 
0 0 0 0 0 0 0 0 0 
0 0 0 0 0 0 0 0 0 
0 0 0 0 0 0 0 0 0 
0 0 0 0 0 0 0 0 0 
0 0 0 0 0 0 0 0 0 
0 0 0 0 0 0 0 0 0 
0 0 0 0 0 0 0 0 0 
0 0 0 0 0 0 0 0 0 
0 0 0 0 0 0 0 0 0 
0 0 0 0 0 0 0 0 0 
0 0 0 0 0 0 0 0 0 
0 0 0 0 0 0 0 0 0 
0 0 0 0 0 0 0 0 0 
0 0 0 0 0 0 0 0 0 
0 0 0 0 0 0 0 0 0 
0 0 0 0 0 0 0 0 0 
0 0 0 0 0 0 0 0 0 
0 0 0 0 0 0 0 0 0 
0 0 0 0 0 0 0 0 0 
0 0 0 0 0 0 0 0 0 
0 0 0 0 0 0 0 0 0 
0 0 0 0 0 0 0 0 0 
0 0 0 0 0 0 0 0 0 
0 0 0 0 0 0 0 0 0 
0 0 0 0 0 0 0 0 0 
0 0 0 0 0 0 0 0 0 
0 0 0 0 0 0 0 0 0 
0 0 0 0 0 0 0 0 0 
0 0 0 0 0 0 0 0 0 
0 0 0 0 0 0 0 0 0 
0 0 0 0 0 0 0 0 0 
0 0 0 0 0 0 0 0 0 
0 0 0 0 0 0 0 0 0 
0 0 0 0 0 0 0 0 0 
0 0 0 0 0 0 0 0 0 
0 0 0 0 0 0 0 0 0 
0 0 0 0 0 0 0 0 0 
0 0 0 0 0 0 0 0 0 
0 0 0 0 0 0 0 0 0 
0 0 0 0 0 0 0 0 0 
0 0 0 0 0 0 0 0 0 
0 0 0 0 0 0 0 0 0 
0 0 0 0 0 0 0 0 0 
0 0 0 0 0 0 0 0 0 
0 0 0 0 0 0 0 0 0 
0 0 0 0 0 0 0 0 0 
0 0 0 0 0 0 0 0 0 
0 0 0 0 0 0 0 0 0 
0 0 0 0 0 0 0 0 0 
0 0 0 0 0 0 0 0 0 
0 0 0 0 0 0 0 0 0 
0 0 0 0 0 0 0 0 0 
0 0 0 0 0 0 0 0 0 
0 0 0 0 0 0 0 0 0 
0 0 0 0 0 0 0 0 0 
0 0 0 0 0 0 0 0 0 
0 0 0 0 0 0 0 0 0 
0 0 0 0 0 0 0 0 0 
0 0 0 0 0 0 0 0 0 
0 0 0 0 0 0 0 0 0 
0 0 0 0 0 0 0 0 0 
0 0 0 0 0 0 0 0 0 
0 0 0 0 0 0 0 0 0 
0 0 0 0 0 0 0 0 0 
0 0 0 0 0 0 0 0 0 
0 0 0 0 0 0 0 0 0 
0 0 0 0 0 0 0 0 0 
0 0 0 0 0 0 0 0 0 
0 0 0 0 0 0 0 0 0 
0 0 0 0 0 0 0 0 0 
0 0 0 0 0 0 0 0 0 
0 0 0 0 0 0 0 0 0 
0 0 0 0 0 0 0 0 0 
0 0 0 0 0 0 0 0 0 
0 3.1715e-11 0 0 0 0 0 0 0 
0 0 0 0 0 0 0 6.32292e-10 0 
0 0 0 0 0 0 0 0 0 
0 0 0 0 0 0 0 0 0 
0 0 0 0 0 0 0 0 0 
0 0 0 0 0 0 0 0 0 
0 0 0 0 0 0 0 0 0 
0 0 0 0 0 0 0 0 0 
0 0 0 0 0 0 0 0 0 
0 0 0 0 0 0 0 0 0 
0 0 0 0 0 0 0 0 0 
0 0 0 0 0 0 0 0 0 
0 0 5.63371e-12 0 0 0 0 0 0 
0 1.78001e-09 0 0 0 3.09525e-11 0 0 0 
0 0 0 0 0 0 0 2.2893e-09 0 
0 0 0 0 0 0 0 0 0 
0 0 0 0 0 5.25415e-10 0 0 0 
0 0 0 0 0 0 0 0 0 
0 0 0 0 0 0 0 0 0 
0 0 0 0 0 0 0 0 0 
0 0 0 0 0 0 0 0 0 
0 0 0 0 0 0 0 0 0 
0 0 0 0 0 0 0 0 0 
0 0 0 0 0 0 0 0 1.7183e-09 
0 0 0 0 0 0 0 0 0 
0 0 0 0 0 0 0 0 0 
0 0 0 0 0 0 0 0 0 
0 0 0 0 3.85517e-10 0 0 0 0 
0 0 0 0 0 0 0 0 0 
0 0 0 0 0 0 0 0 0 
0 0 0 0 0 0 0 0 0 
0 0 0 0 0 0 0 0 0 
0 0 0 0 0 0 0 0 0 
0 0 0 0 0 0 0 0 0 
0 0 0 0 0 0 0 0 0 
0 0 0 7.84747e-07 6.6896e-09 2.20095e-09 0 0 0 
0 0 0 0 0 0 0 1.34571e-09 6.40448e-07 
1.3629e-09 0 0 0 0 0 0 0 0 
0 0 0 0 0 0 0 5.00128e-10 0 
0 0 0 0 0 0 0 0 0 
0 0 0 0 0 0 0 0 0 
0 0 0 0 0 0 0 0 0 
0 0 0 0 0 0 0 0 0 
0 0 0 0 0 0 0 0 0 
0 0 0 0 0 0 5.6243e-10 0 0 
0 0 0 1.29638e-09 9.70141e-11 0 0 0 0 
3.18654e-09 0 0 8.24759e-07 0 6.45699e-09 0 0 0 
8.61316e-10 0 0 0 0 6.34942e-10 0 0 0 
0 0 1.88993e-09 1.14878e-09 0 0 0 0 0 
0 0 0 0 0 0 0 0 0 
0 1.56787e-09 0 0 0 0 0 0 0 
0 0 0 0 0 0 0 0 0 
0 0 0 0 0 0 0 0 0 
0 0 0 0 0 0 0 0 0 
0 0 0 0 0 0 0 0 0 
0 0 0 0 4.42385e-09 6.42387e-07 0 1.56179e-09 0 
0 0 0 1.41638e-09 0 8.13853e-09 0 0 1.13855e-09 
0 0 0 0 0 0 0 0 0 
0 0 0 0 0 0 0 0 6.06877e-10 
0 0 0 0 0 0 0 0 0 
0 0 0 0 0 0 1.49895e-09 0 0 
6.41941e-07 1.46904e-09 0 0 0 0 0 0 0 
0 0 0 0 0 0 0 0 0 
0 0 0 0 0 0 0 0 0 
0 0 0 0 0 0 0 0 0 
0 0 0 0 0 0 0 0 0 
0 0 0 0 0 0 0 0 0 
8.4825e-10 0 0 2.53813e-12 0 3.92837e-09 6.42092e-07 4.82744e-09 2.74035e-09 
0 0 0 0 0 0 7.89083e-07 0 0 
6.55265e-10 0 0 0 0 0 0 0 0 
0 0 1.24539e-09 0 0 0 0 0 0 
0 0 0 0 9.50485e-10 0 0 0 0 
0 4.14291e-10 0 0 0 0 0 0 0 
0 0 0 0 0 0 0 0 0 
0 0 0 0 0 0 0 0 0 
0 0 0 0 0 0 0 0 0 
0 0 0 0 0 0 0 0 0 
0 0 0 0 0 0 1.79281e-09 0 0 
0 0 0 0 0 0 2.33523e-09 0 0 
0 0 0 0 0 7.34109e-07 1.24961e-08 0 0 
0 0 6.83693e-07 0 0 1.08854e-09 0 0 0 
0 0 0 0 1.45565e-09 0 1.78205e-09 0 2.06265e-09 
0 0 0 8.42566e-10 0 0 0 0 0 
0 0 0 0 0 0 0 0 0 
9.80117e-11 0 0 0 0 0 0 0 0 
0 0 0 0 0 0 0 0 0 
0 0 0 0 0 0 0 0 0 
0 0 0 0 0 0 0 0 0 
0 0 0 0 0 6.82413e-10 0 5.25398e-09 0 
1.54976e-09 0 0 4.49692e-10 0 0 0 0 2.44591e-09 
0 0 0 0 0 0 0 0 0 
0 0 0 0 0 0 1.18647e-09 3.3348e-10 3.7267e-10 
0 0 0 0 0 0 0 7.13321e-07 0 
7.13059e-07 8.50041e-09 0 0 0 0 0 0 6.61936e-07 
0 0 0 0 0 0 0 0 0 
0 0 0 0 0 0 0 0 0 
0 0 0 0 0 0 0 0 0 
0 0 0 0 0 0 0 0 0 
0 0 0 0 0 0 0 0 0 
0 0 0 0 0 3.82056e-09 0 1.32734e-09 0 
0 0 0 0 0 0 0 0 0 
0 1.35648e-09 0 4.64715e-09 5.54468e-09 0 0 0 0 
0 0 0 0 0 0 1.69299e-09 0 0 
0 0 0 0 0 1.38959e-09 0 0 0 
0 0 2.48802e-09 0 0 3.12547e-10 0 0 0 
0 4.01408e-11 1.98913e-09 2.45079e-09 1.62826e-09 0 0 0 0 
0 0 0 0 0 0 0 0 0 
0 0 0 0 0 0 0 0 0 
0 0 0 0 0 0 0 0 0 
0 0 0 0 0 0 0 0 0 
0 0 0 0 0 0 0 2.20277e-09 0 
3.98821e-09 6.4503e-07 7.35367e-10 0 0 0 0 0 0 
0 0 0 0 6.46048e-07 0 0 0 0 
0 8.89343e-07 9.05636e-07 0 2.31415e-09 7.13013e-07 0 0 0 
0 0 0 0 0 0 0 1.73838e-09 0 
0 1.67606e-09 9.33754e-10 0 0 1.28171e-09 0 0 0 
2.04816e-09 0 0 1.15652e-09 0 0 0 0 0 
0 0 0 0 0 0 0 8.25322e-10 0 
0 0 0 0 0 0 0 0 0 
0 0 0 0 0 0 0 0 0 
0 0 0 0 0 0 0 0 0 
0 0 0 6.98145e-10 2.25879e-09 4.53202e-09 6.42388e-07 5.5337e-09 0 
0 2.79251e-09 3.55035e-09 0 0 0 0 0 0 
0 0 0 0 0 0 0 0 1.6848e-09 
0 0 0 0 0 0 1.98933e-09 0 1.22451e-09 
0 0 0 0 0 0 0 0 0 
0 0 3.12781e-10 0 0 0 0 0 0 
0 0 9.46585e-10 0 0 0 0 0 0 
4.38815e-10 0 0 0 0 0 1.4565e-09 1.42002e-09 0 
0 0 0 0 0 0 0 0 0 
0 0 0 0 0 0 0 0 0 
0 0 0 0 0 0 0 0 0 
0 0 0 0 0 7.23998e-12 0 0 5.25543e-09 
2.14945e-09 0 1.12039e-09 0 0 6.05415e-10 0 0 0 
0 6.14606e-10 0 0 0 0 0 0 6.34953e-10 
1.84344e-09 0 0 0 0 0 0 3.55462e-09 0 
1.23291e-09 0 0 0 0 2.32425e-10 0 0 0 
0 0 0 0 0 1.41343e-09 0 0 0 
0 0 0 0 0 0 0 0 1.58277e-09 
0 4.92414e-10 0 0 0 0 0 1.32281e-09 0 
0 0 0 0 0 0 0 0 0 
0 0 0 0 0 0 0 0 0 
0 0 0 0 0 0 0 0 0 
0 0 0 0 1.41972e-09 0 0 0 0 
0 0 0 0 1.08356e-09 0 0 0 0 
0 0 0 0 0 0 8.87834e-10 9.66031e-10 0 
5.86049e-10 0 0 0 0 2.01004e-09 0 0 0 
0 3.4287e-10 1.48963e-09 0 0 0 0 0 0 
0 0 0 0 0 0 0 4.7931e-09 0 
1.25366e-10 0 0 0 0 1.63356e-09 0 0 7.67248e-10 
0 0 0 0 0 0 0 0 0 
7.13142e-07 0 0 1.6404e-09 0 0 0 0 0 
0 0 0 0 0 0 0 0 0 
0 0 0 0 0 0 0 0 0 
0 0 0 0 0 1.37024e-10 0 0 0 
1.01839e-09 7.15846e-10 0 3.76903e-10 0 0 0 9.52293e-10 0 
0 0 0 3.84372e-10 0 0 7.67039e-10 0 0 
5.87781e-10 0 0 0 1.58087e-09 0 0 8.68644e-07 8.6582e-07 
0 0 0 0 0 0 0 0 0 
3.38046e-10 0 0 0 0 0 0 0 6.42545e-07 
0 0 0 4.46755e-10 0 0 0 0 0 
0 6.50341e-07 7.86345e-09 0 0 0 0 0 0 
5.63079e-09 1.7906e-09 0 0 0 0 0 0 0 
0 0 0 0 0 0 0 0 0 
0 0 0 0 0 0 0 0 0 
6.70602e-10 0 0 0 0 0 0 1.43071e-09 0 
0 6.22369e-10 0 0 0 0 0 0 0 
1.7032e-09 0 0 0 0 7.62065e-10 0 0 0 
0 0 0 0 0 0 0 1.22059e-10 3.40911e-09 
0 0 2.27341e-09 0 2.79561e-10 1.10469e-09 6.41136e-07 1.98614e-09 0 
1.22982e-09 0 0 0 0 0 0 2.74006e-09 0 
0 0 0 0 0 0 4.7724e-09 0 0 
0 0 1.5534e-09 0 3.56085e-09 0 0 0 0 
1.13507e-09 0 7.19722e-07 1.8351e-09 0 2.91201e-10 0 0 0 
0 0 0 0 0 0 0 0 0 
0 0 0 0 0 0 0 0 0 
0 1.0985e-09 0 1.30855e-09 1.45548e-09 0 0 1.18492e-09 0 
0 0 0 2.02916e-10 0 0 0 0 0 
0 0 2.83197e-09 0 1.21061e-09 0 1.17483e-09 0 0 
0 0 0 0 0 0 0 2.13847e-09 0 
4.42611e-09 1.60733e-11 0 0 2.39365e-09 0 7.16239e-10 2.61503e-09 0 
0 0 9.46294e-10 0 0 0 0 5.84047e-10 0 
5.02286e-10 0 1.92458e-09 0 0 0 9.63629e-09 6.49341e-07 5.2247e-09 
0 0 0 0 0 0 0 6.44013e-10 0 
0 0 4.08988e-09 0 0 0 0 0 0 
0 0 0 0 0 0 0 0 0 
0 0 0 0 0 0 0 0 0 
0 0 0 0 0 0 0 0 0 
7.12068e-07 0 0 0 0 0 0 0 0 
0 0 4.27905e-09 6.42782e-07 0 0 1.87054e-09 0 6.93441e-07 
0 2.68756e-09 1.51626e-09 0 0 0 0 1.14224e-09 0 
0 0 0 0 0 0 0 0 0 
0 0 0 0 0 0 0 0 0 
0 0 1.36111e-09 0 0 0 0 0 3.45001e-09 
0 0 2.97763e-09 0 0 0 0 0 0 
0 0 0 3.13261e-09 0 0 1.25802e-09 0 0 
0 0 0 0 0 0 0 0 0 
0 0 0 0 0 0 0 0 0 
0 0 0 6.5468e-07 0 0 0 0 7.67712e-07 
0 0 0 0 0 0 0 0 0 
0 0 1.17003e-09 1.34043e-09 0 0 0 0 0 
0 0 6.99966e-07 0 0 3.78132e-09 0 0 0 
0 1.36499e-09 3.28842e-09 0 0 6.64993e-10 0 0 0 
1.08877e-09 0 0 0 0 0 0 0 3.58732e-10 
0 1.12042e-09 0 0 0 0 0 0 0 
0 0 0 0 0 6.51224e-07 0 0 0 
0 4.07108e-10 0 0 1.00505e-09 0 0 0 0 
0 0 0 0 0 0 0 0 0 
0 0 0 0 0 0 0 0 0 
0 0 1.82823e-09 3.63973e-09 0 0 0 0 0 
0 0 3.93765e-09 2.30106e-09 0 0 7.9629e-10 0 0 
0 0 0 0 0 0 0 0 0 
2.05606e-09 0 0 0 0 0 2.7774e-09 6.03161e-09 0 
0 6.02606e-09 6.98312e-07 0 0 0 0 0 0 
4.44781e-10 0 0 0 0 2.78588e-09 4.20233e-09 0 0 
0 0 0 0 0 0 1.75973e-09 0 0 
0 0 2.31025e-09 0 0 0 0 0 0 
0 0 0 0 0 6.67569e-07 0 0 0 
2.77712e-10 0 0 0 0 0 0 0 0 
0 0 0 0 0 0 0 0 0 
0 0 0 7.32049e-10 5.36164e-10 0 0 0 7.04479e-07 
9.35081e-09 0 7.35881e-07 4.30886e-09 2.42062e-09 0 0 0 0 
0 1.01838e-09 0 0 0 0 0 8.63327e-10 0 
0 1.1705e-09 1.36481e-09 0 0 0 0 0 0 
0 0 0 7.76065e-09 0 0 0 0 0 
0 0 0 0 1.28811e-09 0 6.54169e-07 4.87633e-09 2.97074e-09 
0 0 0 0 0 0 6.45969e-07 2.14209e-09 1.89368e-09 
0 0 6.99389e-09 3.57765e-09 2.60731e-09 0 0 0 4.18092e-10 
0 0 1.01278e-09 0 0 0 0 3.98834e-10 0 
0 0 0 0 0 0 0 0 0 
0 0 0 0 0 0 0 0 0 
0 0 0 0 0 0 2.57421e-09 2.59042e-09 0 
0 0 0 0 0 0 0 1.03117e-09 3.01415e-09 
0 0 0 0 0 0 0 0 0 
0 0 0 0 0 0 0 0 0 
6.95526e-07 0 0 7.17164e-07 4.70796e-09 0 0 0 0 
0 0 0 0 0 0 0 3.09913e-09 0 
0 0 0 1.93598e-09 1.53428e-09 0 4.69728e-09 0 3.6203e-09 
0 0 4.69355e-09 6.46185e-07 0 0 1.30176e-09 0 1.15916e-09 
0 0 0 0 2.34552e-09 0 0 0 0 
0 0 0 0 0 0 0 0 0 
0 0 0 0 0 0 0 0 0 
0 0 0 0 0 0 0 0 0 
0 0 0 1.81916e-09 1.22671e-09 0 1.84562e-09 3.27627e-09 2.95002e-10 
0 8.63819e-07 0 0 0 0 0 0 0 
0 0 0 0 0 0 0 7.14548e-07 0 
5.92923e-09 0 0 0 0 0 0 0 0 
0 0 0 9.2993e-10 1.71103e-09 0 1.84857e-09 4.15078e-09 0 
2.36966e-09 0 0 0 0 0 0 3.99162e-10 0 
0 0 0 0 0 0 0 9.47289e-10 0 
3.91424e-10 0 0 0 2.99642e-09 0 0 6.70776e-07 0 
0 0 0 0 0 0 0 0 0 
0 0 0 0 0 0 0 0 0 
0 0 0 0 0 0 0 0 0 
0 0 1.37461e-09 0 1.48057e-09 0 0 0 0 
3.81491e-09 1.55918e-09 8.76899e-07 0 0 0 0 0 4.14881e-10 
0 0 0 0 0 2.92626e-09 0 6.16308e-09 0 
0 0 3.08309e-09 3.00618e-09 0 0 0 0 0 
0 0 0 0 0 1.34345e-09 0 5.36142e-07 0 
0 3.50469e-09 0 0 0 0 2.67767e-09 3.32049e-09 0 
0 0 9.84848e-10 2.29913e-09 4.64927e-10 0 0 0 0 
0 0 0 0 0 0 1.89963e-09 0 0 
0 0 0 0 0 0 0 0 0 
0 0 0 0 0 0 0 0 0 
0 0 0 0 0 0 0 0 0 
0 0 0 0 0 0 0 0 0 
0 0 0 0 0 0 6.78622e-07 4.29072e-09 0 
0 7.11059e-10 0 0 0 0 0 0 0 
0 0 0 0 0 0 0 0 0 
0 0 0 0 0 0 0 0 5.65064e-09 
0 0 0 0 7.41304e-07 0 7.96248e-07 0 0 
0 0 0 0 0 0 0 0 0 
0 0 0 0 0 3.62244e-09 6.51676e-07 0 0 
0 0 0 0 0 0 0 0 0 
0 0 0 0 0 0 0 0 0 
0 0 0 0 0 0 0 0 0 
0 0 0 0 0 0 0 0 0 
2.31494e-09 1.59941e-09 0 0 7.41233e-10 4.78704e-09 1.37895e-09 4.80624e-09 8.85786e-10 
0 1.7039e-09 0 0 0 0 0 0 0 
8.90427e-07 9.04422e-07 0 3.84968e-09 0 5.70912e-10 0 0 4.85481e-09 
0 0 0 0 0 0 0 0 0 
4.59106e-10 1.78033e-09 2.04376e-09 0 0 0 0 3.85196e-09 0 
1.56485e-09 0 0 0 0 1.03184e-09 0 0 0 
1.22371e-10 0 0 0 0 0 2.62622e-09 2.44276e-09 0 
2.39279e-09 2.90261e-09 0 0 0 0 0 0 0 
0 0 0 0 0 0 0 0 0 
0 0 0 0 0 0 0 0 0 
0 0 0 0 0 0 0 0 0 
0 0 0 2.37944e-09 0 0 0 0 0 
0 5.49472e-10 0 0 0 0 0 0 0 
0 0 0 0 0 0 0 0 3.77509e-09 
0 0 2.26999e-09 0 3.77338e-09 0 0 0 0 
0 2.78208e-09 0 0 0 0 0 0 3.63752e-09 
0 0 0 7.28354e-07 0 1.59406e-09 0 0 0 
0 0 0 0 0 0 0 0 0 
0 0 0 0 0 0 0 0 0 
0 0 0 0 0 0 0 0 0 
0 0 0 0 0 0 0 0 0 
0 0 0 0 0 0 0 0 0 
0 0 0 3.79987e-09 7.07906e-07 0 9.13026e-09 0 0 
4.26932e-09 3.59625e-09 0 2.3787e-09 0 0 0 0 1.19038e-09 
0 0 0 0 0 0 0 0 0 
0 7.54469e-07 0 0 0 6.54011e-07 0 0 0 
0 7.62864e-10 0 0 0 0 0 0 0 
8.22645e-07 0 0 0 2.77761e-09 0 0 0 4.19124e-10 
0 0 0 0 0 0 0 0 0 
0 0 0 1.61563e-10 0 0 0 0 0 
0 0 0 0 0 0 0 0 0 
0 0 0 0 0 0 0 0 0 
0 0 0 6.71561e-10 0 0 0 0 0 
0 0 0 0 0 0 0 7.71123e-07 4.49761e-09 
0 0 0 6.49221e-07 0 0 1.41412e-09 0 0 
0 1.65994e-09 0 0 7.05083e-07 0 0 0 0 
0 0 1.07607e-08 0 0 0 4.40754e-09 0 0 
0 0 0 0 0 0 8.48808e-10 0 0 
0 0 9.59985e-10 0 7.40504e-07 6.72761e-09 0 0 0 
0 0 0 0 0 0 0 0 0 
0 0 0 0 0 0 0 0 0 
0 0 0 0 0 0 0 0 0 
0 0 0 0 0 0 0 0 0 
0 0 0 0 0 0 1.15641e-09 0 0 
0 0 0 0 2.87991e-10 0 0 0 5.5149e-09 
0 0 0 3.66111e-09 4.78537e-09 0 1.32259e-09 0 0 
0 0 4.64612e-10 0 0 0 0 9.79674e-10 0 
0 8.70757e-07 0 8.12377e-07 2.5015e-09 4.33291e-09 0 3.14462e-10 1.91218e-09 
1.43923e-09 0 0 0 0 0 0 0 0 
0 0 2.61068e-09 0 0 0 0 0 0 
0 0 0 0 0 0 0 0 0 
0 0 0 0 0 0 0 0 0 
0 0 0 0 0 0 0 0 0 
0 0 0 0 0 0 0 0 0 
0 0 0 0 0 0 0 0 0 
4.57139e-10 0 0 2.26753e-10 0 0 2.12792e-09 2.21191e-09 1.061e-08 
7.26081e-07 0 0 1.60589e-09 0 0 0 0 0 
0 0 0 0 4.10762e-10 0 0 9.3958e-09 0 
0 8.49507e-07 0 0 0 0 0 0 0 
0 0 0 0 0 6.62152e-07 0 3.66606e-09 0 
0 1.98496e-09 0 0 4.34038e-09 0 0 0 0 
0 4.6368e-10 0 0 0 0 0 0 0 
0 0 5.98546e-10 0 0 0 0 6.65192e-10 0 
0 0 0 0 0 0 0 0 0 
0 0 0 0 0 0 0 0 0 
0 0 0 0 0 0 0 6.39932e-07 0 
0 0 0 0 0 0 0 0 0 
0 0 0 0 1.92513e-09 1.16809e-09 0 0 3.75954e-10 
0 0 0 0 0 0 0 0 0 
7.47069e-07 0 0 0 0 0 0 0 0 
0 0 0 0 0 0 5.07887e-09 0 3.69889e-09 
0 0 0 0 0 0 2.74532e-09 0 1.70275e-09 
1.00351e-09 0 0 0 0 0 0 0 0 
0 0 0 0 0 0 0 0 0 
0 0 0 0 0 0 0 0 0 
0 0 0 0 0 0 0 0 0 
0 0 0 0 0 0 2.16543e-09 2.35761e-09 0 
0 0 0 0 0 5.3049e-10 0 5.30044e-10 0 
1.58739e-09 1.35821e-09 1.84057e-10 0 0 0 0 0 0 
0 0 0 0 0 9.47154e-10 0 2.88732e-09 0 
0 0 0 0 0 0 0 1.56883e-09 0 
0 0 0 0 0 0 0 0 0 
4.44584e-09 0 0 8.37349e-07 0 8.33206e-07 9.26081e-09 0 0 
0 0 0 0 0 0 0 0 0 
3.33403e-10 0 0 0 3.6411e-09 0 0 0 0 
2.00055e-09 0 0 0 0 0 0 0 0 
0 0 0 0 0 0 0 0 0 
0 0 0 0 0 0 0 0 0 
0 0 0 0 1.64095e-09 0 0 0 0 
0 0 0 0 2.55096e-11 0 0 0 0 
0 0 0 0 0 0 0 0 0 
1.87278e-09 0 4.77794e-09 0 0 4.53202e-09 0 0 0 
0 0 0 0 0 0 0 0 0 
6.70109e-07 2.71519e-09 0 0 0 8.71713e-07 0 3.73143e-09 2.93044e-09 
6.3329e-10 0 0 0 0 0 0 0 3.3719e-10 
0 0 0 0 4.20479e-09 0 0 0 7.10436e-07 
0 0 0 3.23116e-10 0 0 0 0 0 
0 0 0 0 0 0 0 0 0 
0 0 0 0 0 0 0 0 0 
0 0 0 0 0 0 0 6.39998e-07 0 
0 0 0 0 0 0 0 3.66011e-10 0 
0 0 0 0 6.44369e-07 0 0 0 0 
0 0 0 0 8.98094e-07 8.84229e-07 0 0 0 
0 0 0 0 0 0 0 0 0 
3.00484e-09 9.33061e-09 0 0 0 1.7774e-09 0 0 1.67154e-09 
3.34011e-11 0 0 0 0 5.61544e-10 0 0 0 
1.51726e-09 0 0 0 0 5.587e-09 6.93369e-07 0 0 
0 0 4.08337e-10 0 0 0 0 0 0 
0 0 0 0 0 0 0 0 0 
0 0 0 0 0 0 0 0 0 
0 0 0 0 0 0 0 1.36705e-09 1.83816e-09 
0 0 0 0 0 0 0 0 0 
0 0 0 0 0 0 0 2.32708e-09 0 
0 0 0 0 0 1.13001e-08 0 0 0 
0 0 0 0 0 0 0 0 8.56953e-10 
0 0 0 0 0 0 0 0 0 
0 0 3.15698e-10 0 0 0 0 0 0 
0 0 1.6852e-09 0 0 0 0 1.76801e-09 0 
4.9534e-09 0 7.04827e-07 0 0 0 0 0 0 
0 0 0 0 0 0 0 0 0 
0 0 0 0 0 0 0 0 0 
0 0 0 0 0 0 0 0 0 
0 0 0 0 0 0 0 0 0 
0 0 0 0 0 2.5149e-09 0 0 0 
0 0 0 0 7.61676e-10 0 0 9.15707e-10 3.39047e-09 
0 0 0 0 6.79535e-10 0 0 0 0 
0 0 0 0 0 0 1.68137e-09 0 2.97065e-09 
2.71753e-09 0 0 0 0 0 0 0 0 
0 0 0 0 0 0 6.81447e-07 1.07604e-09 1.56795e-09 
0 0 4.06713e-09 2.55494e-09 0 0 0 0 0 
0 0 0 0 0 0 0 0 0 
0 0 0 0 0 0 0 0 0 
0 0 0 0 0 0 0 0 0 
0 0 0 5.32616e-10 0 0 0 0 0 
0 0 0 0 0 0 0 1.85478e-09 0 
0 0 0 0 1.99163e-09 3.22564e-09 6.72052e-07 0 0 
0 0 1.2516e-09 0 0 0 0 0 0 
0 0 0 0 0 0 0 0 0 
0 0 0 0 0 0 3.77067e-09 0 1.06394e-09 
1.17824e-09 0 0 6.49842e-07 0 1.74808e-09 0 0 0 
3.57868e-09 0 0 0 0 2.3901e-09 0 0 0 
0 0 0 0 0 0 0 0 0 
0 0 0 0 0 0 0 0 0 
0 0 0 0 0 1.85492e-09 0 0 0 
5.91923e-10 0 0 0 0 0 0 0 0 
0 0 0 0 0 0 6.44412e-07 0 0 
0 0 0 0 0 0 0 0 3.09425e-09 
0 0 0 0 0 0 0 0 0 
0 0 0 0 0 0 0 0 0 
0 0 1.38133e-09 0 0 2.21938e-09 5.74474e-09 6.45125e-07 0 
0 0 0 0 8.67216e-09 0 0 0 0 
0 1.58012e-09 0 0 0 0 0 0 0 
0 4.45374e-10 0 0 0 0 0 0 0 
0 0 0 0 0 0 0 0 0 
0 0 0 0 0 0 6.40597e-07 4.33462e-09 1.67199e-09 
0 0 0 0 2.33611e-11 0 0 0 0 
0 0 0 0 0 1.08038e-09 2.12854e-09 0 0 
0 0 6.37638e-10 0 0 0 0 1.17184e-09 0 
2.56987e-09 0 0 7.43305e-10 0 0 1.44993e-09 6.71496e-07 0 
0 7.78817e-10 0 0 0 0 0 0 0 
0 0 0 0 0 0 0 2.63934e-09 0 
0 5.77149e-11 0 0 0 0 0 0 1.08508e-09 
0 0 0 4.06274e-09 0 0 0 6.55642e-07 0 
0 0 0 0 0 0 0 0 0 
0 0 0 0 0 0 0 0 0 
0 0 0 0 8.99977e-10 0 0 0 2.74499e-09 
0 0 0 0 0 0 0 0 0 
0 0 0 0 0 0 0 0 6.93051e-10 
0 1.35478e-09 6.45116e-10 5.71137e-10 0 0 0 0 0 
0 0 0 0 7.22301e-10 0 2.40026e-09 0 0 
0 0 0 0 0 0 0 0 0 
0 1.45822e-10 0 0 0 6.44422e-07 4.49846e-09 4.37147e-09 0 
0 0 0 0 0 9.9544e-10 0 0 0 
3.6997e-09 0 6.5218e-07 3.10684e-09 0 1.80109e-09 0 1.56e-09 0 
0 0 0 0 0 0 0 0 0 
0 0 0 0 0 0 0 0 0 
0 0 0 0 0 0 0 0 0 
1.82012e-09 0 0 0 0 0 0 0 0 
0 0 3.04404e-10 0 6.62021e-10 0 0 0 0 
1.30709e-09 0 8.47626e-10 0 0 0 0 0 0 
0 0 0 5.72643e-10 0 0 0 0 0 
0 0 0 9.75982e-07 9.04682e-07 0 0 4.49943e-10 0 
0 0 0 0 0 0 0 0 0 
1.05361e-09 0 0 1.55341e-10 0 0 5.94066e-10 0 0 
0 0 1.20331e-09 0 0 0 0 0 0 
0 0 0 0 0 0 0 0 0 
0 0 0 0 0 0 0 0 0 
0 0 0 0 0 0 0 0 2.50644e-09 
8.82172e-10 0 0 0 0 0 0 0 0 
0 0 0 0 0 0 0 0 0 
0 3.56962e-10 0 0 0 0 0 7.2461e-10 3.61044e-10 
6.11276e-10 0 6.10039e-11 0 0 0 0 0 0 
0 0 0 8.22122e-07 0 0 7.40139e-09 0 0 
0 0 0 0 0 0 0 0 6.59807e-12 
0 0 0 0 0 0 0 0 0 
3.06284e-09 0 1.76626e-09 0 0 0 1.34847e-09 0 0 
0 0 1.98784e-09 0 0 0 0 0 0 
0 0 0 0 0 0 0 0 0 
0 0 0 0 0 0 0 0 0 
0 0 0 0 0 0 0 0 0 
8.675e-10 0 0 0 0 0 2.18444e-09 0 3.15566e-10 
0 0 0 2.48207e-10 0 0 4.20313e-09 6.42751e-07 0 
0 0 0 0 1.74733e-09 0 0 0 0 
6.64825e-07 0 3.87607e-09 0 0 0 0 0 0 
0 0 0 0 0 0 0 0 0 
4.2039e-11 0 5.15095e-10 6.16929e-10 0 0 0 0 5.17705e-09 
6.6104e-07 0 0 1.04303e-09 0 0 0 0 0 
2.04742e-09 6.51985e-07 0 0 0 0 0 0 0 
0 0 0 0 0 0 0 0 0 
0 0 0 0 0 0 0 0 0 
0 0 0 6.16668e-09 0 0 0 0 0 
0 0 0 0 0 6.23889e-09 6.72726e-07 0 0 
5.1949e-10 0 0 0 0 0 0 0 0 
2.54795e-09 0 0 0 0 0 2.6052e-10 1.72668e-09 0 
0 5.72897e-09 0 0 0 0 0 3.6872e-09 0 
0 7.58291e-10 0 0 0 0 0 0 0 
0 0 0 0 0 0 0 0 0 
0 0 0 2.7307e-09 0 0 0 0 1.94735e-09 
0 1.1101e-08 0 0 0 0 0 0 0 
0 0 0 0 0 0 0 0 0 
0 0 0 0 0 0 0 0 0 
0 0 0 6.40638e-07 0 0 0 0 0 
0 0 0 0 6.73713e-07 0 0 0 0 
0 0 0 0 0 0 0 3.74699e-09 0 
2.27156e-09 0 0 0 0 0 1.16585e-09 0 6.51853e-07 
4.56564e-09 3.40117e-09 0 0 0 0 0 1.7467e-09 0 
0 0 0 0 0 0 0 0 0 
0 0 0 0 0 0 0 0 2.19101e-09 
0 0 0 0 0 0 0 0 0 
0 0 2.45464e-09 0 0 0 0 0 0 
0 0 0 0 0 0 0 0 0 
0 0 0 0 0 0 0 0 0 
0 0 0 0 1.85829e-09 0 0 0 0 
0 0 0 8.18087e-10 0 0 1.35224e-09 0 0 
0 2.03306e-09 0 0 0 0 3.71314e-09 0 0 
2.38023e-09 0 9.72578e-10 0 0 0 0 0 0 
0 2.24865e-09 1.31139e-09 0 0 0 0 0 1.1258e-09 
0 0 1.66296e-09 6.6325e-07 5.17526e-09 0 0 0 0 
0 0 0 0 0 0 0 0 0 
0 0 0 0 0 1.49754e-09 0 2.14987e-09 0 
6.47824e-07 0 0 0 1.75827e-09 0 0 0 0 
0 0 0 0 0 0 0 0 0 
0 0 0 0 0 0 0 0 0 
0 0 0 7.50101e-10 0 7.5985e-10 0 0 1.02726e-09 
4.57172e-10 7.07512e-10 0 3.17039e-09 0 0 0 0 0 
2.34864e-09 2.49976e-09 7.30948e-07 3.58641e-09 0 3.38089e-09 0 6.57976e-07 2.51559e-09 
0 0 0 4.31495e-10 1.42326e-09 2.35983e-09 1.28294e-09 0 0 
0 2.14743e-09 0 4.87169e-10 0 0 0 0 0 
0 0 0 0 0 0 0 0 0 
0 0 0 0 0 0 0 0 3.86917e-10 
0 0 0 9.72865e-07 1.07378e-06 0 0 0 0 
0 0 0 0 5.14433e-10 0 0 0 0 
0 0 0 0 0 0 0 0 0 
0 0 0 0 0 0 0 0 0 
0 0 0 0 0 0 0 0 0 
0 0 0 0 0 7.01621e-07 2.26456e-09 0 1.93105e-09 
0 0 4.31033e-09 1.364e-09 0 0 0 0 1.94182e-09 
2.51347e-09 0 0 0 0 6.66579e-07 1.78555e-09 1.44139e-09 1.63555e-09 
0 0 0 0 0 0 0 0 0 
0 0 0 0 0 0 3.92892e-09 0 0 
0 0 0 0 0 0 0 0 0 
0 0 0 0 0 9.76706e-07 0 0 4.12964e-09 
1.65579e-09 0 0 0 0 1.34534e-09 0 0 7.59206e-07 
0 0 1.51039e-09 3.89379e-10 0 0 0 0 0 
0 0 0 0 0 0 0 0 0 
0 0 0 0 0 0 0 0 0 
0 0 0 0 0 0 0 0 0 
0 2.38644e-09 0 0 7.36553e-07 0 2.00371e-09 0 2.93446e-09 
8.2654e-10 0 0 4.00383e-09 0 0 0 0 0 
2.45332e-09 0 0 3.81644e-10 0 7.90049e-10 0 8.15583e-10 0 
0 0 0 0 0 0 0 6.74761e-07 0 
0 1.95487e-09 0 0 0 0 0 0 0 
0 0 0 1.48178e-09 0 0 0 0 0 
0 3.9615e-09 0 0 0 0 0 0 0 
0 7.62854e-07 0 0 0 0 0 0 0 
0 0 0 0 0 0 0 0 0 
0 0 0 0 0 0 0 0 0 
1.16721e-10 0 6.20563e-10 0 0 6.49335e-09 6.9058e-07 3.29125e-09 0 
1.63335e-09 0 0 2.2669e-09 0 0 3.99977e-10 0 1.58755e-09 
0 0 3.97803e-09 6.59118e-07 1.1008e-09 1.19949e-09 0 0 0 
0 2.63945e-11 1.33419e-09 0 1.5734e-09 0 7.78769e-10 0 0 
0 0 2.42062e-09 7.57023e-07 8.27613e-09 0 7.99469e-10 0 0 
0 0 7.60813e-09 0 0 0 0 0 3.46564e-10 
0 5.14301e-10 1.36777e-09 0 0 0 9.66125e-10 4.4448e-09 8.94287e-10 
0 6.6255e-07 3.25855e-09 2.09251e-09 0 1.41454e-09 0 0 0 
0 0 0 2.99287e-09 0 0 0 0 0 
0 0 0 0 0 0 0 0 0 
0 0 0 0 0 0 0 0 0 
0 0 0 0 0 0 2.99795e-09 0 0 
0 0 0 8.15494e-10 0 0 4.32665e-10 0 3.13614e-09 
0 0 0 0 0 9.98462e-09 0 1.34054e-09 0 
6.66855e-07 0 2.06892e-09 0 0 2.88145e-09 0 0 0 
0 0 0 0 0 7.58921e-07 0 1.68006e-09 0 
0 0 0 4.41352e-09 0 0 0 0 0 
0 0 0 0 0 1.16833e-10 2.01597e-09 2.45183e-10 0 
0 2.83501e-09 0 0 0 0 0 0 0 
1.37568e-10 0 0 0 2.79186e-09 0 0 0 0 
0 0 0 0 0 0 0 0 0 
0 0 0 0 0 0 0 0 0 
0 0 0 0 0 0 0 0 0 
0 1.40482e-09 0 2.29127e-10 4.64382e-10 0 0 0 6.68705e-07 
0 0 1.63511e-09 0 0 0 0 4.1084e-09 0 
0 0 6.03159e-10 2.79619e-09 0 0 6.5681e-07 0 0 
0 0 0 1.76507e-09 0 0 0 0 0 
0 0 0 0 9.26037e-07 9.53982e-07 1.80648e-09 0 0 
0 0 0 6.69598e-10 6.51003e-07 0 0 0 0 
0 0 2.98281e-09 0 0 0 0 0 0 
0 0 5.49892e-09 0 0 0 0 0 0 
0 0 0 0 0 0 0 0 0 
0 0 0 0 0 0 0 0 0 
0 0 0 0 0 0 0 0 0 
0 0 0 4.46636e-10 0 0 0 0 0 
0 0 0 0 0 0 0 0 0 
0 0 0 0 0 8.91635e-10 0 0 0 
1.70042e-09 1.43398e-09 0 0 0 0 1.98998e-09 0 1.12406e-09 
0 0 0 0 0 0 0 0 0 
0 0 0 0 0 4.22774e-09 2.92017e-09 0 0 
1.56307e-09 0 0 0 0 1.57555e-10 0 4.67449e-10 0 
3.88742e-09 0 0 5.0964e-09 8.14751e-07 0 0 0 0 
0 0 0 0 0 0 0 0 0 
0 0 0 0 0 0 0 0 0 
0 0 0 0 2.10344e-10 0 0 0 0 
0 0 0 0 0 0 0 9.59214e-10 0 
0 0 0 1.11264e-09 0 0 0 0 0 
0 0 0 0 0 3.44285e-09 3.24426e-09 0 2.67556e-09 
0 1.56652e-09 1.31854e-09 0 0 0 0 0 0 
0 0 0 0 0 0 0 9.92276e-07 9.86437e-09 
0 0 0 0 2.48049e-09 0 0 0 2.51504e-09 
7.3316e-10 0 0 2.21096e-09 0 0 0 0 0 
0 0 4.0388e-09 0 9.73054e-07 0 0 0 1.06549e-09 
0 0 0 0 0 0 0 0 0 
0 0 0 0 0 0 0 0 0 
0 0 0 0 0 0 0 0 1.76107e-09 
5.04469e-09 0 0 0 4.78647e-10 0 0 0 6.46923e-07 
4.5039e-09 4.63987e-10 0 2.0002e-09 0 0 1.95114e-09 0 0 
0 0 0 0 0 1.14186e-09 0 6.66445e-07 0 
0 0 0 3.13956e-10 0 0 0 0 0 
9.4789e-10 0 0 0 2.39623e-09 0 0 0 9.31386e-07 
0 0 0 0 7.39908e-07 0 0 0 0 
0 0 0 0 0 0 0 1.87823e-09 2.901e-09 
0 6.71913e-07 1.51394e-09 3.71577e-10 0 9.10159e-07 0 0 6.80567e-10 
1.20951e-09 0 0 0 0 0 0 0 0 
0 0 0 0 0 0 0 0 0 
0 0 0 0 0 0 0 0 0 
0 0 0 7.46555e-10 0 0 0 0 0 
2.9698e-09 1.928e-09 0 1.03784e-09 0 0 1.49751e-09 0 0 
0 0 0 0 0 0 0 0 1.11549e-09 
0 1.33209e-09 2.59555e-09 0 0 2.46691e-09 0 0 0 
1.11949e-09 0 0 2.03112e-09 0 8.23889e-10 1.50172e-09 0 0 
6.16917e-09 0 0 9.39411e-07 0 1.24849e-09 0 3.69018e-09 0 
9.52202e-10 4.49507e-09 0 2.23009e-09 3.03495e-09 0 6.6038e-07 0 0 
2.21334e-09 0 3.92447e-09 1.64011e-09 3.53164e-09 0 0 0 0 
0 0 0 0 0 0 0 0 0 
0 0 0 0 0 0 0 0 0 
0 0 0 0 0 0 0 0 0 
0 6.17406e-09 6.71965e-07 5.51821e-09 0 4.65024e-10 0 0 0 
2.29031e-10 6.55155e-10 1.65696e-09 8.41337e-10 0 0 0 0 6.47468e-07 
0 0 0 0 0 0 0 0 0 
0 0 6.70914e-09 0 0 4.07728e-09 0 1.21766e-09 0 
0 1.53847e-09 0 0 0 9.89889e-10 0 2.91085e-11 0 
0 0 1.43786e-09 0 9.04167e-07 0 0 4.21492e-09 0 
6.90784e-07 0 1.33741e-09 6.80796e-07 4.27616e-09 0 0 4.98944e-09 2.75662e-09 
0 2.29274e-09 0 0 0 0 0 0 1.99383e-09 
1.74947e-09 9.034e-10 0 0 0 0 0 0 0 
0 0 0 0 0 0 0 0 0 
0 0 0 0 0 0 0 0 0 
0 0 0 0 0 6.79709e-10 1.14065e-10 0 0 
0 0 0 0 0 0 0 0 0 
1.19543e-09 0 0 0 4.92532e-10 0 0 0 0 
1.42121e-09 0 0 0 0 0 7.58193e-07 0 0 
0 1.38673e-09 0 0 0 0 0 0 0 
0 0 0 0 0 0 0 1.20264e-09 0 
0 6.58194e-10 0 9.68336e-10 4.44386e-09 0 5.92632e-09 0 0 
0 0 0 0 0 5.26147e-09 4.10547e-09 0 9.61335e-10 
0 0 0 0 0 0 0 0 0 
0 0 0 0 0 0 0 0 0 
0 0 0 0 0 0 0 0 0 
0 0 0 0 0 3.78497e-09 0 0 0 
3.83178e-10 0 3.075e-09 0 0 0 4.58487e-11 0 1.15129e-09 
0 0 0 0 0 0 0 0 0 
4.14113e-10 0 0 1.44098e-09 0 0 0 0 2.78879e-09 
3.15841e-09 0 0 0 6.74268e-07 0 0 0 0 
0 0 1.43442e-09 0 0 0 0 0 0 
0 0 5.46778e-10 0 0 0 0 2.32946e-09 0 
9.34052e-10 0 4.15733e-09 0 0 7.71725e-07 0 0 0 
0 0 0 0 0 0 0 0 0 
0 0 0 0 0 0 0 0 0 
0 0 0 0 0 0 0 1.34092e-10 0 
9.48577e-10 0 0 8.68099e-07 8.84652e-07 0 0 0 0 
0 0 0 6.48202e-09 0 0 0 0 3.22302e-10 
7.90832e-10 0 0 1.92608e-09 0 0 0 0 0 
0 0 0 0 0 0 0 8.66602e-07 1.17029e-09 
0 0 0 0 4.87877e-09 0 0 0 6.69403e-07 
0 0 0 0 6.55773e-07 0 0 0 0 
3.75969e-10 0 0 2.58665e-09 0 0 0 0 0 
0 0 6.78676e-07 0 0 0 0 7.6011e-07 0 
0 0 3.42842e-10 0 0 0 0 0 0 
0 0 0 0 0 0 0 0 0 
0 0 0 0 0 0 0 0 0 
0 1.52087e-09 0 0 0 0 5.55975e-09 0 0 
1.76808e-09 0 0 0 0 6.40938e-07 7.46646e-09 3.28212e-09 0 
0 9.31178e-10 0 1.91976e-09 6.46932e-07 0 1.71088e-09 0 0 
3.00782e-10 0 0 0 0 0 0 0 0 
0 0 0 0 4.67442e-09 6.7842e-10 0 0 7.28393e-10 
0 5.57429e-09 0 0 0 0 0 1.10245e-09 0 
1.82589e-09 0 6.54241e-07 0 0 0 2.45485e-09 0 0 
6.78391e-07 0 0 2.75364e-09 0 1.44074e-09 0 0 0 
0 0 0 0 0 0 0 0 0 
0 0 0 0 0 0 0 0 0 
0 0 0 0 0 0 0 0 0 
0 0 6.83629e-10 0 1.88903e-09 0 0 0 0 
0 0 1.46525e-09 0 0 0 1.69945e-09 0 0 
0 0 0 0 0 3.12791e-09 0 0 0 
0 4.51249e-10 0 0 0 0 0 9.8092e-07 1.14326e-06 
1.03675e-06 0 0 1.85853e-09 7.65528e-07 0 0 3.20526e-09 0 
0 0 0 0 0 0 0 0 0 
0 0 2.02689e-09 2.43026e-09 0 1.04394e-09 3.42312e-09 0 0 
1.22828e-09 0 0 0 0 0 0 1.64323e-09 0 
3.04187e-09 0 0 0 0 0 0 0 0 
0 0 0 0 0 0 0 0 0 
0 0 0 0 0 0 0 0 0 
0 0 0 0 0 3.1461e-09 0 0 7.27982e-09 
8.67071e-07 0 0 0 0 0 0 0 0 
0 0 0 0 0 0 0 0 1.05965e-09 
0 0 0 0 0 0 0 0 0 
2.2254e-09 0 0 0 0 0 5.91679e-09 7.26999e-07 0 
0 3.91979e-09 0 0 0 5.85685e-10 0 0 0 
0 1.01278e-09 0 0 0 0 0 0 6.57723e-07 
0 0 0 0 4.77345e-10 0 0 5.35576e-10 0 
0 0 0 0 0 0 0 0 0 
0 0 0 0 0 0 0 0 0 
0 0 0 0 0 0 0 0 0 
0 0 0 0 0 0 0 0 0 
0 8.57201e-07 0 6.40925e-10 0 0 0 0 0 
0 0 0 0 0 0 9.04523e-10 0 1.07761e-09 
0 0 0 0 0 0 1.0491e-09 0 0 
0 1.69663e-09 0 2.40496e-09 0 7.32715e-07 0 0 4.17602e-09 
0 0 0 0 4.17622e-10 0 0 0 0 
4.37869e-10 0 0 0 0 0 0 0 0 
0 0 2.10625e-09 0 0 0 0 0 0 
0 0 0 4.2305e-10 0 0 0 0 0 
0 0 0 0 0 0 0 0 0 
0 0 0 0 0 0 0 0 0 
0 0 0 0 0 0 0 0 0 
0 0 1.81707e-08 0 2.48783e-09 0 0 0 0 
0 0 0 0 0 0 0 0 0 
0 0 0 0 0 1.31232e-09 0 2.59396e-09 0 
4.36691e-09 7.03546e-07 2.87551e-09 0 0 0 6.75404e-09 3.98145e-09 5.91426e-09 
0 0 0 0 8.58117e-07 0 0 0 0 
0 0 0 0 0 0 0 0 0 
0 0 1.49594e-09 7.08821e-10 0 2.25837e-09 2.26272e-09 0 0 
1.26645e-09 0 0 0 0 0 0 0 0 
0 0 0 0 0 0 0 0 0 
0 0 0 0 0 0 0 0 0 
0 0 0 0 0 0 0 0 0 
0 0 1.93772e-09 4.25911e-10 0 0 0 0 0 
0 3.83353e-10 0 0 0 0 0 0 0 
2.22938e-10 0 0 0 0 3.15598e-09 0 5.7882e-09 1.2184e-09 
0 0 2.0229e-09 0 9.04033e-10 1.77402e-09 0 1.89349e-09 0 
1.2813e-09 0 0 0 2.57745e-09 8.54068e-07 0 3.94621e-09 1.94972e-09 
0 0 0 0 0 0 0 0 0 
0 0 0 0 5.46992e-10 5.7623e-10 0 0 2.29274e-09 
0 0 0 0 0 0 0 0 0 
0 0 0 0 0 0 0 0 0 
0 0 0 0 0 0 0 0 0 
0 0 0 0 0 0 0 4.08354e-09 0 
0 0 6.86191e-10 1.0432e-09 0 0 0 0 0 
0 4.03686e-10 0 0 0 0 0 0 0 
0 0 0 0 0 0 1.16465e-09 3.36162e-09 0 
0 0 0 1.69412e-09 0 0 0 0 0 
6.75415e-10 0 0 0 0 0 0 0 0 
0 0 0 0 0 8.73064e-10 0 0 0 
0 0 0 0 0 0 1.49616e-09 0 6.48188e-07 
0 1.65888e-09 0 0 0 0 0 0 0 
0 0 0 0 0 0 0 0 0 
0 0 0 0 0 0 0 0 0 
0 0 0 0 0 0 0 7.95198e-10 6.40187e-07 
0 0 1.16117e-09 0 0 0 2.20277e-10 0 1.26064e-09 
7.80946e-10 0 0 0 0 0 0 0 0 
0 0 0 0 4.93374e-10 0 0 0 7.10044e-10 
0 0 0 0 0 0 0 0 0 
0 0 0 0 0 1.50986e-09 0 5.13303e-09 0 
1.76048e-09 0 1.07511e-10 0 4.24977e-09 0 0 0 0 
0 0 0 0 0 0 0 0 3.05236e-09 
2.1541e-09 0 0 0 0 0 0 0 0 
0 0 0 0 0 0 0 0 0 
0 0 0 0 0 0 0 0 0 
0 0 0 0 0 0 0 0 2.26331e-09 
1.77845e-09 0 7.27313e-10 8.10273e-10 0 0 9.76398e-10 0 0 
0 0 0 0 0 0 0 0 0 
0 0 0 0 7.77147e-10 0 0 0 1.38954e-09 
0 0 0 0 0 0 0 0 0 
0 0 0 0 0 0 0 0 0 
0 0 2.83379e-09 0 1.47622e-09 6.77084e-07 0 0 0 
0 0 0 0 0 0 0 0 0 
0 0 0 0 0 0 0 1.30713e-09 0 
0 0 0 0 0 0 0 0 0 
0 0 0 0 0 0 0 0 0 
0 0 0 0 0 0 0 0 0 
0 2.06946e-09 1.94835e-09 0 0 0 0 2.89996e-09 6.54253e-07 
4.65198e-09 0 0 1.94195e-09 0 0 0 0 0 
9.97613e-11 0 0 0 0 6.5416e-10 0 0 0 
0 0 0 0 0 0 0 0 0 
0 0 0 0 0 0 0 0 0 
0 0 2.50764e-09 0 0 0 0 0 3.42565e-09 
0 0 5.25659e-10 0 0 0 0 0 0 
1.05817e-09 0 0 0 0 0 0 0 0 
0 0 0 7.35106e-10 1.3646e-10 0 0 0 0 
0 0 0 0 0 0 0 0 0 
0 0 0 0 0 0 0 0 0 
0 0 0 0 0 0 0 0 0 
0 0 4.28419e-09 1.81615e-10 6.67875e-07 0 0 1.55539e-09 0 
0 0 0 0 0 0 0 0 0 
0 0 0 0 1.0779e-09 0 0 2.56202e-09 0 
0 0 0 0 0 4.075e-10 0 0 0 
0 9.50516e-10 0 0 5.5147e-09 0 6.23281e-09 0 0 
4.62028e-09 6.68338e-10 0 0 0 0 0 0 0 
3.30042e-10 3.20709e-10 2.03195e-09 0 6.48099e-07 4.2368e-09 0 0 3.10136e-09 
0 1.95998e-09 0 0 0 0 0 0 0 
0 0 0 0 0 0 0 0 0 
0 0 0 0 0 0 0 0 0 
0 0 0 0 0 0 0 0 0 
0 0 0 0 0 0 0 0 0 
0 0 0 9.97971e-10 3.19916e-09 0 0 2.41864e-09 0 
2.40062e-09 0 0 0 0 0 2.9995e-09 6.41583e-07 0 
4.68387e-09 0 0 0 0 0 0 0 0 
6.42808e-07 4.85094e-09 0 1.62723e-09 0 0 0 0 0 
9.2947e-09 6.58052e-07 0 2.51093e-09 0 0 0 0 0 
0 0 1.09538e-09 0 0 1.48285e-09 0 0 0 
0 0 8.49859e-07 0 0 0 0 0 0 
0 0 0 0 0 0 0 0 0 
0 0 0 0 0 0 0 0 0 
0 0 0 0 0 0 0 0 0 
0 0 0 0 0 0 4.77371e-09 0 0 
1.64451e-09 3.02661e-10 0 0 6.08206e-10 0 6.65489e-07 0 3.90434e-09 
0 0 0 0 0 0 2.09837e-09 6.19002e-10 0 
0 0 0 0 2.07767e-10 0 0 0 0 
0 0 1.9497e-09 0 0 0 0 0 0 
0 0 1.82682e-09 2.63891e-09 0 0 0 0 0 
0 0 0 0 0 0 0 0 1.3466e-09 
9.1112e-10 2.7006e-09 0 8.49646e-07 5.437e-09 0 0 0 0 
0 0 0 0 0 0 0 0 0 
0 0 0 0 0 0 0 0 0 
0 0 0 0 0 0 0 0 1.21586e-09 
0 2.11864e-09 0 0 0 0 6.88873e-07 2.64925e-09 0 
1.09423e-09 1.40062e-09 0 0 0 0 0 0 0 
0 0 0 8.06052e-07 1.08743e-09 0 0 0 0 
0 6.05707e-10 0 0 0 0 0 4.96186e-10 0 
2.34623e-09 0 0 0 0 0 0 0 0 
1.26518e-09 0 0 0 0 0 0 0 0 
0 0 0 0 0 0 0 0 0 
0 0 0 0 0 0 1.40253e-09 6.29294e-10 0 
0 0 0 0 0 0 0 0 0 
0 0 0 0 0 0 0 0 0 
0 0 0 0 0 0 3.5189e-09 1.34065e-09 0 
0 0 0 3.03056e-09 0 0 0 0 3.25781e-09 
0 0 0 0 0 0 0 0 0 
0 0 7.2878e-07 0 2.75001e-09 7.80257e-07 9.47803e-09 0 0 
1.73033e-09 1.12043e-09 0 0 0 0 0 0 0 
0 0 0 0 0 0 0 0 0 
0 0 0 0 0 0 0 0 0 
0 0 0 0 0 0 0 0 0 
0 0 0 0 0 0 2.0845e-09 2.57251e-09 0 
0 0 0 0 0 0 0 0 0 
0 0 0 0 0 0 0 0 0 
0 0 0 0 0 0 0 6.43332e-07 0 
0 0 0 0 8.73286e-07 4.02265e-09 0 0 0 
0 0 0 0 0 0 0 6.55436e-07 1.92475e-09 
0 0 3.46469e-09 7.76796e-09 0 0 0 0 3.79407e-09 
0 0 0 0 0 0 0 6.27979e-10 0 
0 0 0 0 9.2018e-10 0 0 0 0 
0 0 0 0 0 0 0 0 0 
0 0 0 0 0 0 0 0 0 
0 0 0 0 0 0 2.82532e-10 7.85621e-10 0 