# vtk DataFile Version 5.1
vtk output
ASCII
DATASET STRUCTURED_POINTS
DIMENSIONS 100 100 1
SPACING 1 1 1
ORIGIN 0 0 0
POINT_DATA 10000
FIELD FieldData 6
feature_1 1 10000 float
0 0 0 0 0 0 0 0 0 
0 0 0 0 0 0 0 0 0 
0 0 0 0 0 0 0 0 0 
0 0 0 0 0 0 0 0 0 
0 0 0 0 0 0 0 0 0 
0 0 0 0 0 0 0 0 0 
0 0 0 0 0 0 0 0 0 
0 0 0 0 0 0 0 0 0 
0 0 0 0 0 0 0 0 0 
0 0 0 0 0 0 0 0 0 
0 0 0 0 0 0 0 0 0 
0 0 0 0 0 0 0 0 0 
0 0 0 0 0 0 0 0 0 
0 0 0 0 0 0 0 0 0 
0 0 0 0 0 0 0 0 0 
0 0 0 0 0 0 0 0 0 
0 0 0 0 0 0 0 0 0 
0 0 0 0 0 0 0 0 0 
0 0 0 0 0 0 0 0 0 
0 0 0 0 0 0 0 0 0 
0 0 0 0 0 0 0 0 0 
0 0 0 0 0 0 0 0 0 
0 0 0 0 0 0 0 0 0 
0 0 0 0 0 0 0 0 0 
0 0 0 0 0 0 0 0 0 
0 0 0 0 0 0 0 0 0 
0 0 0 0 0 0 0 0 0 
0 0 0 0 0 0 0 0 0 
0 0 0 0 0 0 0 0 0 
0 0 0 0 0 0 0 0 0 
0 0 0 0 0 0 0 0 0 
0 0 0 0 0 0 0 0 0 
0 0 0 0 0 0 0 0 0 
0 0 0 0 0 0 0 0 0 
0 0 0 0 0 0 0 0 0 
0 0 0 0 0 0 0 0 0 
0 0 0 0 0 0 0 0 0 
0 0 0 0 0 0 0 0 0 
0 0 0 0 0 0 0 0 0 
0 0 0 0 0 0 0 0 0 
0 0 0 0 0 0 0 0 0 
0 0 0 0 0 0 0 0 0 
0 0 0 0 0 0 0 0 0 
0 0 0 0 0 0 0 0 0 
0 0 0 0 0 0 0 0 0 
0 0 0 0 0 0 0 0 0 
0 0 0 0 0 0 0 0 0 
0 0 0 0 0 0 0 0 0 
0 0 0 0 0 0 0 0 0 
0 0 0 0 0 0 0 0 0 
0 0 0 0 0 0 0 0 0 
0 0 0 0 0 0 0 0 0 
0 0 0 0 0 0 0 0 0 
0 0 0 0 0 0 0 0 0 
0 0 0 0 0 0 0 0 0 
0 0 0 0 0 0 0 0 0 
0 0 0 0 0 0 0 0 0 
0 0 0 0 0 0 0 0 0 
0 0 0 0 0 0 0 0 0 
0 0 0 0 0 0 0 0 0 
0 0 0 0 0 0 0 0 0 
0 0 0 0 0 0 0 0 0 
0 0 0 0 0 0 0 0 0 
0 0 0 0 0 0 0 0 0 
0 0 0 0 0 0 0 0 0 
0 0 0 0 0 0 0 0 0 
0 0 0 0 0 0 0 0 0 
0 0 0 0 0 0 0 0 0 
0 0 0 0 0 0 0 0 0 
0 0 0 0 0 0 0 0 0 
0 0 0 0 0 0 0 0 0 
0 0 0 0 0 0 0 0 0 
0 0 0 0 0 0 0 0 0 
0 0 0 0 0 0 0 0 0 
0 0 0 0 0 0 0 0 0 
0 0 0 0 0 0 0 0 0 
0 0 0 0 0 0 0 0 0 
0 0 0 0 0 0 0 0 0 
0 0 0 0 0 0 0 0 0 
0 0 0 0 0 0 0 0 0 
0 0 0 0 0 0 0 0 0 
0 0 0 0 0 0 0 0 0 
0 0 0 0 0 0 0 0 0 
0 0 0 0 0 0 0 0 0 
0 0 0 0 0 0 0 0 0 
0 0 0 0 0 0 0 0 0 
0 0 0 0 0 0 0 0 0 
0 0 0 0 0 0 0 0 0 
0 0 0 0 0 0 0 0 0 
0 0 0 0 0 0 0 0 0 
0 0 0 0 0 0 0 0 0 
0 0 0 0 0 0 0 0 0 
0 0 0 0 0 0 0 0 0 
0 0 0 0 0 0 0 0 0 
0 0 0 0 0 0 0 0 0 
0 0 0 0 0 0 0 0 0 
0 0 0 0 0 0 0 0 0 
0 0 0 0 0 0 0 0 0 
0 0 0 0 0 0 0 0 0 
0 0 0 0 0 0 0 0 0 
0 0 0 0 0 0 0 0 0 
0 0 0 0 0 0 0 0 0 
0 0 0 0 0 0 0 0 0 
0 0 0 0 0 0 0 0 0 
0 0 0 0 0 0 0 0 0 
0 0 0 0 0 0 0 0 0 
0 0 0 0 0 0 0 0 0 
0 0 0 0 0 0 0 0 0 
0 0 0 0 0 0 0 0 0 
0 0 0 0 0 0 0 0 0 
0 0 0 0 0 0 0 0 0 
0 0 0 0 0 0 0 0 0 
0 0 0 0 0 0 0 0 0 
0 0 0 0 0 0 0 0 0 
0 0 0 0 0 0 0 0 0 
0 0 0 0 0 0 0 0 0 
0 1.60283e-09 0 0 0 4.31903e-11 0 0 0 
0 0 0 0 0 0 0 2.316e-09 5.13275e-10 
0 0 0 0 0 0 0 0 0 
0 0 0 0 0 0 0 0 0 
0 0 0 0 0 0 0 0 0 
0 0 0 0 0 0 0 0 0 
0 0 0 0 0 0 0 0 0 
0 0 0 0 0 0 0 0 0 
0 0 0 0 0 0 0 0 0 
0 0 0 0 0 0 0 0 0 
0 0 0 0 0 0 0 0 1.18998e-09 
0 0 0 0 0 0 0 0 0 
0 0 0 0 0 0 0 0 0 
0 0 0 0 0 0 0 0 0 
0 0 0 0 0 0 0 0 0 
0 0 0 0 0 0 0 0 0 
0 0 0 0 0 0 0 0 0 
0 0 0 0 0 0 0 0 0 
0 0 0 0 0 0 0 0 0 
0 0 0 0 0 0 0 0 0 
0 0 0 0 0 0 0 0 0 
0 0 0 0 0 0 0 0 0 
0 0 0 7.92589e-07 5.98785e-09 2.61927e-09 0 1.15405e-09 0 
0 0 0 0 0 0 1.92514e-09 1.11162e-09 6.44937e-07 
1.6963e-09 0 0 0 0 0 0 0 0 
0 0 0 0 0 0 0 0 0 
0 0 0 0 0 0 0 0 0 
0 0 0 0 0 0 0 0 0 
0 0 0 0 0 0 0 0 0 
0 0 0 0 0 0 0 0 0 
0 0 0 0 0 0 0 0 0 
0 0 0 0 4.71086e-10 0 0 0 0 
0 0 0 1.35623e-09 0 0 0 0 0 
2.99194e-09 0 0 8.33233e-07 0 6.58944e-09 0 0 0 
7.1981e-10 0 0 0 0 0 0 0 0 
0 0 1.67563e-09 1.27593e-09 7.93362e-10 0 0 0 0 
0 0 0 0 0 0 0 0 0 
0 1.73208e-09 0 0 0 0 0 0 0 
0 0 0 0 0 0 0 0 0 
0 0 0 0 0 0 0 0 0 
0 0 0 0 0 0 0 0 0 
0 0 0 0 0 0 0 0 0 
0 0 0 0 4.35046e-09 6.47011e-07 0 0 0 
0 0 0 1.69827e-09 0 7.53389e-09 0 0 1.2457e-09 
0 0 0 0 0 0 0 0 1.49594e-09 
0 0 0 0 0 0 0 0 0 
0 0 0 0 0 0 0 0 0 
0 0 0 0 0 0 1.00572e-09 0 0 
6.46353e-07 1.3136e-09 0 9.50798e-10 0 0 0 0 0 
0 0 0 0 0 0 0 0 0 
0 0 0 0 0 0 0 0 0 
0 0 0 0 0 0 0 0 0 
0 0 0 0 0 0 0 0 0 
0 0 0 0 0 0 0 0 0 
0 0 0 0 1.13665e-09 3.94647e-09 0 4.22011e-09 2.65319e-09 
0 0 0 0 0 0 7.98587e-07 0 0 
1.04582e-09 0 0 0 0 0 0 0 0 
0 0 1.50301e-09 0 0 0 0 0 0 
0 0 0 0 9.14957e-10 0 0 0 0 
0 1.27672e-11 0 0 4.34481e-10 0 0 0 0 
0 0 0 0 0 0 0 0 0 
0 0 0 0 0 0 0 0 0 
0 0 0 0 0 0 0 0 0 
0 0 0 0 0 0 0 0 0 
0 0 0 0 0 0 2.00307e-09 0 0 
6.91553e-10 0 0 3.26513e-10 0 0 2.39123e-09 0 0 
0 0 8.90135e-10 0 0 7.41768e-07 1.21041e-08 0 0 
0 0 6.8962e-07 0 8.68294e-10 9.04432e-10 0 0 0 
0 0 0 0 1.49216e-09 0 1.8104e-09 0 1.25385e-09 
0 2.04068e-09 0 0 0 0 0 0 0 
0 0 0 4.18645e-10 0 0 0 0 0 
0 0 0 0 0 0 0 0 0 
0 0 0 0 0 0 0 0 0 
0 0 0 0 0 0 0 0 0 
0 0 0 0 0 0 0 0 0 
0 0 0 0 0 0 1.14676e-09 5.00718e-09 0 
2.00723e-09 0 0 0 0 0 0 0 2.05622e-09 
1.69362e-09 0 0 0 1.32324e-09 1.66807e-09 0 0 2.24406e-09 
0 0 0 0 0 0 5.92561e-10 0 0 
0 0 0 0 0 0 0 7.19005e-07 0 
7.19194e-07 7.86679e-09 0 0 0 0 0 0 6.67456e-07 
0 0 0 0 0 0 0 0 0 
0 0 0 0 0 0 0 0 0 
0 0 0 0 0 0 0 0 0 
0 0 0 0 0 0 0 0 0 
0 0 0 0 0 0 0 0 0 
0 0 0 0 0 3.55473e-09 0 1.39219e-09 0 
0 0 0 0 0 0 0 0 1.86525e-09 
0 0 0 0 0 0 0 0 0 
0 0 0 0 0 0 1.73223e-09 0 0 
0 0 0 0 0 0 0 0 0 
0 0 2.21499e-09 0 0 0 0 9.61894e-10 0 
0 0 2.10102e-09 1.98895e-09 1.39777e-09 0 0 0 0 
0 0 0 0 0 0 0 0 0 
0 0 0 0 0 0 0 0 0 
0 0 0 0 0 0 0 0 0 
0 0 0 0 0 0 0 0 0 
0 0 0 0 0 0 0 1.70597e-09 1.60268e-09 
3.78171e-09 6.49513e-07 0 0 0 0 0 0 0 
0 0 0 0 6.5003e-07 0 0 0 0 
0 8.98391e-07 9.15285e-07 0 1.91529e-09 7.20254e-07 0 0 0 
0 0 0 0 0 0 0 2.05037e-09 0 
0 1.51171e-09 0 0 0 1.29286e-09 0 1.75808e-09 0 
1.79041e-09 0 8.29145e-10 1.41141e-09 1.14601e-09 0 0 0 0 
0 0 0 0 0 0 0 0 0 
0 0 0 0 0 0 0 0 0 
0 0 0 0 0 0 0 0 0 
0 0 0 0 0 0 0 0 0 
0 0 0 6.72697e-10 1.96805e-09 4.17766e-09 6.47091e-07 5.29833e-09 0 
0 2.6253e-09 3.70564e-09 0 0 0 0 0 9.06442e-13 
0 0 0 0 0 0 0 0 1.42229e-09 
0 0 0 0 0 0 1.78516e-09 0 1.21066e-09 
0 0 1.09509e-09 0 0 0 0 0 0 
0 0 0 0 0 0 1.31278e-10 0 0 
0 6.68663e-07 9.51872e-10 0 0 0 0 0 0 
0 0 0 0 0 0 0 1.68578e-09 0 
0 0 0 0 0 0 0 0 0 
0 0 0 0 0 0 0 0 0 
0 0 0 0 0 0 0 0 0 
0 0 0 0 0 1.07902e-09 0 0 5.21987e-09 
2.04958e-09 0 1.3633e-09 0 1.61673e-09 0 0 0 0 
0 6.50353e-10 0 0 0 0 0 0 0 
1.37366e-09 0 0 0 0 0 0 3.02711e-09 0 
1.53519e-09 0 0 0 0 0 0 0 0 
0 0 7.38978e-10 0 0 1.83596e-09 1.82668e-10 0 0 
0 0 0 0 6.48089e-10 0 0 0 1.88196e-09 
0 0 0 0 0 0 1.22896e-09 4.96755e-09 0 
0 0 0 0 0 0 0 0 0 
0 0 0 0 0 0 0 0 0 
0 0 0 0 0 0 0 0 0 
0 0 0 0 0 0 0 0 0 
0 0 0 0 0 0 0 0 0 
0 0 0 0 0 0 0 0 0 
0 0 0 0 0 2.09033e-09 0 0 1.78874e-10 
0 5.59921e-10 0 0 0 0 0 0 0 
0 0 0 0 0 0 0 4.37648e-09 0 
0 0 0 0 0 1.5807e-09 0 0 0 
0 0 0 0 0 0 0 0 0 
7.19009e-07 0 1.84361e-09 1.54666e-09 0 0 0 0 0 
0 0 0 0 0 0 0 0 0 
0 0 0 0 0 0 0 0 0 
0 0 0 0 0 1.38989e-09 0 0 0 
0 0 0 0 0 0 0 1.65423e-09 0 
0 0 6.81571e-10 2.94813e-10 0 0 8.31783e-10 0 0 
2.50087e-10 0 0 0 1.70591e-09 0 0 8.76696e-07 8.73911e-07 
0 0 0 0 0 0 0 0 5.18524e-10 
0 0 0 0 0 0 0 0 6.46616e-07 
0 0 0 1.76388e-10 0 0 0 0 0 
0 6.54879e-07 0 0 0 0 0 0 2.91172e-09 
5.9091e-09 0 0 0 0 0 0 0 0 
0 0 0 0 0 0 0 0 0 
0 0 0 0 0 0 0 0 0 
7.24451e-10 0 0 0 0 0 0 9.71742e-10 0 
0 0 0 0 0 0 0 0 0 
1.04062e-09 0 0 0 0 7.34463e-10 0 0 0 
0 0 0 0 0 1.73974e-09 0 0 3.36886e-09 
0 0 2.24475e-09 1.77385e-10 0 0 6.45999e-07 1.9125e-09 0 
1.03768e-09 0 0 0 0 0 0 2.81021e-09 0 
0 0 0 0 0 0 4.60774e-09 0 0 
0 0 1.25697e-09 1.03698e-10 3.99401e-09 0 1.09243e-09 0 1.22183e-09 
1.68692e-09 0 7.25725e-07 0 0 0 0 0 0 
0 0 0 0 0 0 0 0 0 
0 0 0 0 0 0 0 0 0 
0 0 0 9.71097e-10 1.02395e-09 2.13693e-10 0 0 0 
0 0 0 0 0 0 0 0 0 
0 0 3.05518e-09 0 7.45395e-10 0 9.662e-10 9.25778e-11 0 
0 0 0 0 0 0 0 1.94112e-09 0 
4.38154e-09 0 0 0 2.4012e-09 0 0 2.62767e-09 7.77785e-10 
0 0 1.2025e-09 0 0 0 0 6.4436e-10 0 
0 0 1.57442e-09 8.59705e-10 0 0 8.85905e-09 6.54749e-07 4.67053e-09 
0 0 0 0 0 0 0 5.01625e-10 0 
0 0 3.77851e-09 0 0 4.33704e-10 0 0 0 
0 0 0 0 0 0 0 0 0 
0 0 0 0 0 0 0 0 0 
0 0 0 0 0 0 0 0 0 
7.18817e-07 0 0 0 0 0 0 0 0 
0 0 4.28524e-09 6.47051e-07 0 0 1.62291e-09 3.66078e-09 6.98917e-07 
0 2.4552e-09 1.52685e-09 0 0 0 0 1.2306e-09 0 
0 0 0 0 1.53832e-09 0 0 0 0 
0 0 0 0 0 0 0 6.30277e-12 5.85433e-10 
0 0 1.06704e-09 0 1.69761e-09 0 0 0 3.04882e-09 
0 0 2.83883e-09 0 0 0 0 1.28314e-09 0 
0 0 0 2.89737e-09 0 0 2.49556e-09 0 0 
0 0 0 0 0 0 0 0 0 
0 0 0 0 0 0 0 0 0 
0 0 0 6.59977e-07 0 0 0 0 7.7559e-07 
0 0 0 0 0 0 0 0 0 
0 0 0 0 0 0 0 0 0 
0 0 7.06275e-07 0 0 4.02713e-09 0 0 0 
0 9.20708e-10 2.85425e-09 1.19781e-11 0 6.63204e-10 0 0 0 
1.22059e-09 0 0 0 0 0 0 0 0 
0 1.10412e-09 0 0 0 0 0 0 0 
0 0 0 0 0 6.56299e-07 0 0 1.39862e-09 
0 5.00521e-10 0 0 5.32464e-10 9.42186e-10 0 1.55292e-09 0 
0 0 0 0 0 0 0 0 0 
0 0 0 0 0 0 0 0 0 
0 0 1.34467e-09 4.04165e-09 0 0 0 0 0 
0 0 3.52028e-09 2.41069e-09 0 0 1.07024e-09 0 0 
0 0 0 0 1.09147e-09 0 0 0 0 
1.54025e-09 0 0 0 0 0 2.16619e-09 6.05578e-09 3.58018e-09 
0 5.87404e-09 7.04246e-07 0 0 2.2716e-10 0 0 0 
0 0 0 0 3.74805e-09 2.88464e-09 4.86406e-09 1.64033e-09 0 
0 0 4.46705e-10 0 0 0 2.01442e-09 0 0 
0 0 2.64381e-09 0 0 0 0 0 0 
0 0 0 0 0 6.73353e-07 0 0 0 
2.64924e-10 0 0 0 0 0 0 0 0 
0 0 0 0 0 0 0 0 0 
0 0 0 0 0 0 1.33773e-09 0 7.11579e-07 
9.23379e-09 1.05723e-09 7.43733e-07 4.89418e-09 2.61853e-09 0 0 0 0 
0 8.52332e-10 0 0 0 0 0 0 0 
0 1.08268e-09 1.48625e-09 0 0 0 0 0 0 
0 0 0 7.24144e-09 0 0 0 0 0 
0 0 0 0 1.32594e-09 0 6.59304e-07 4.64517e-09 2.41028e-09 
0 0 0 0 0 0 6.50323e-07 2.26283e-09 1.5462e-09 
0 0 6.786e-09 3.6653e-09 2.67146e-09 0 0 0 9.45314e-10 
0 0 0 0 0 0 0 0 0 
0 0 0 0 0 0 0 0 0 
0 0 0 0 0 0 0 0 0 
0 0 0 0 0 0 2.04614e-09 2.11142e-09 0 
0 0 0 0 0 6.37965e-10 1.36711e-09 0 2.90109e-09 
0 0 2.82749e-09 1.5564e-09 0 0 0 0 0 
0 0 3.26402e-10 0 0 0 0 0 0 
7.02515e-07 0 0 7.23931e-07 4.65766e-09 0 0 0 0 
0 0 0 0 0 0 0 2.57051e-09 0 
0 0 0 1.70844e-09 1.24872e-09 0 4.45291e-09 0 3.66688e-09 
0 0 4.0519e-09 6.50633e-07 0 0 1.15569e-09 0 9.96282e-10 
0 0 0 0 2.0293e-09 0 0 0 0 
0 0 4.78266e-10 0 0 0 0 0 0 
0 0 0 0 0 0 0 0 0 
0 0 0 0 0 0 0 0 5.07392e-10 
0 0 0 0 0 0 2.03006e-09 3.30375e-09 0 
0 8.72087e-07 0 0 0 0 0 0 0 
0 0 0 0 0 0 0 7.20899e-07 0 
5.65373e-09 0 0 0 0 0 0 0 0 
0 0 0 1.89998e-10 1.63235e-09 2.48413e-09 2.25604e-09 3.67228e-09 0 
0 0 0 0 0 0 0 0 0 
0 0 0 1.80045e-11 0 0 0 3.53797e-11 0 
0 0 0 0 0 0 0 6.76032e-07 4.43971e-09 
0 0 0 0 0 0 0 0 0 
0 0 0 0 0 0 0 0 0 
0 0 0 0 0 0 0 0 7.94879e-11 
0 1.28984e-09 1.13345e-09 0 1.63393e-09 0 0 3.29775e-10 0 
3.83224e-09 0 8.85059e-07 0 0 0 0 0 0 
0 0 0 0 0 2.82447e-09 0 5.80959e-09 0 
0 0 3.31963e-09 2.96471e-09 0 0 0 0 1.36442e-09 
0 0 0 0 0 0 0 5.2083e-07 6.0109e-10 
0 3.21525e-09 0 0 0 0 2.33809e-09 3.57545e-09 0 
0 0 1.14389e-09 1.81268e-09 0 0 0 0 0 
0 0 0 0 0 0 1.91908e-09 0 0 
0 0 0 0 0 0 0 0 0 
0 0 0 0 0 0 0 0 0 
0 0 0 0 0 0 0 0 0 
0 0 0 0 0 0 7.37156e-10 0 0 
0 0 0 0 0 5.48315e-09 6.84808e-07 4.56513e-09 0 
0 0 0 0 7.6058e-10 0 0 0 0 
0 0 0 0 0 0 0 0 0 
0 0 0 0 0 0 0 0 5.73057e-09 
0 0 0 0 7.48696e-07 0 8.0506e-07 0 0 
0 0 0 0 0 0 0 0 0 
0 0 0 0 0 3.65455e-09 6.55892e-07 0 0 
0 0 0 0 0 0 0 0 0 
0 0 0 0 0 0 0 0 0 
0 0 0 0 0 0 0 0 0 
0 0 0 0 0 0 0 0 0 
2.3319e-09 1.33419e-09 0 0 0 0 1.49581e-09 4.36853e-09 8.03516e-10 
0 1.6977e-09 0 0 0 0 0 0 0 
8.99424e-07 9.137e-07 0 4.07927e-09 4.05193e-10 8.43156e-12 0 0 4.64556e-09 
0 0 0 0 0 0 0 0 0 
7.65777e-10 1.37165e-09 1.84117e-09 0 0 0 0 3.6735e-09 0 
1.97984e-09 0 0 0 0 9.66281e-10 8.41118e-10 0 0 
0 0 0 0 0 0 2.25586e-09 2.49295e-09 0 
2.71137e-09 0 0 0 0 0 0 0 0 
0 0 0 0 0 0 0 0 0 
0 0 0 0 0 0 0 0 0 
0 0 0 0 0 0 0 0 0 
0 0 0 2.36796e-09 0 0 0 0 0 
0 8.78742e-10 0 0 0 0 0 0 2.9692e-09 
0 0 0 0 4.429e-09 0 0 0 3.55905e-09 
0 0 2.0614e-09 0 3.88231e-09 0 0 0 0 
0 2.7257e-09 0 0 0 0 0 0 3.36594e-09 
8.77629e-07 0 0 7.35761e-07 0 1.26979e-09 1.74795e-09 0 0 
0 0 0 0 0 0 0 0 0 
0 0 0 0 0 0 0 0 0 
0 0 0 0 0 0 0 0 0 
0 0 0 0 0 0 0 0 0 
0 0 0 0 0 0 0 0 0 
0 0 0 3.51077e-09 7.14409e-07 0 9.18334e-09 0 0 
4.17368e-09 3.40725e-09 0 2.13114e-09 0 0 0 0 1.14696e-09 
0 0 0 0 0 0 0 0 0 
0 7.62215e-07 0 0 0 6.5876e-07 0 1.08467e-09 6.53721e-10 
0 7.29069e-10 0 0 1.66074e-09 0 0 0 0 
8.32055e-07 0 0 0 2.82393e-09 0 0 0 0 
0 0 0 0 0 0 0 0 0 
0 0 0 6.72332e-10 4.84962e-10 0 0 0 0 
0 0 0 0 0 0 0 0 0 
0 0 0 0 0 0 0 0 0 
0 0 0 0 0 0 0 0 0 
0 0 6.90269e-10 0 0 0 0 7.79147e-07 4.47911e-09 
0 0 0 6.5425e-07 0 0 1.58873e-09 4.21211e-10 0 
0 1.99479e-09 0 0 7.12549e-07 0 0 0 0 
0 0 1.00774e-08 0 0 0 4.22213e-09 0 1.34317e-09 
0 0 0 0 0 0 6.01927e-10 0 0 
0 0 1.04998e-09 0 7.48182e-07 6.93614e-09 0 0 0 
0 0 0 0 0 0 0 0 0 
0 0 0 0 0 0 0 0 0 
0 0 0 0 0 0 0 0 0 
0 0 0 0 0 0 0 0 0 
0 0 0 0 0 0 0 0 0 
0 0 0 0 0 0 0 0 5.39909e-09 
3.48096e-09 0 0 3.99941e-09 4.48952e-09 0 1.578e-09 0 0 
0 0 0 0 0 0 0 1.10066e-09 8.49171e-09 
0 8.81138e-07 0 8.21308e-07 2.50629e-09 4.00914e-09 0 0 3.72771e-09 
0 0 0 0 0 0 0 0 0 
0 0 2.25592e-09 0 0 0 0 0 0 
3.86927e-10 0 0 0 0 0 0 0 0 
0 0 0 0 0 0 0 0 0 
0 0 0 0 0 0 0 0 0 
0 0 0 0 0 0 0 0 0 
0 0 0 0 0 0 8.12698e-10 0 0 
0 0 0 0 0 0 1.71238e-09 2.35699e-09 1.02017e-08 
7.33398e-07 0 0 1.31114e-09 0 0 0 1.41079e-09 0 
0 0 0 0 0 0 0 8.96486e-09 0 
0 8.59881e-07 0 0 0 0 0 0 0 
0 0 0 0 0 6.67538e-07 0 3.47359e-09 0 
0 1.47093e-09 0 0 4.18041e-09 0 0 0 0 
0 0 0 0 0 0 0 0 0 
0 0 5.28238e-10 0 0 0 0 0 0 
0 0 0 0 0 0 0 0 0 
0 0 0 0 0 0 0 0 0 
0 0 0 0 0 0 0 6.44141e-07 0 
0 0 0 0 0 0 0 0 0 
0 0 2.04572e-09 0 2.1123e-09 0 2.52432e-09 1.54267e-09 0 
0 0 0 6.99652e-10 0 0 0 0 0 
7.54768e-07 0 0 0 0 0 0 0 0 
0 0 0 1.27861e-09 0 0 5.05671e-09 0 2.96776e-09 
0 0 0 0 0 0 2.3684e-09 0 1.00182e-09 
1.12069e-09 0 0 0 0 0 0 0 0 
0 0 0 0 0 0 0 0 0 
4.14175e-10 0 0 0 0 0 0 0 0 
0 0 0 0 0 0 0 0 0 
0 0 0 0 0 0 2.38399e-09 2.08531e-09 0 
0 0 0 0 0 0 0 0 0 
0 3.15374e-09 0 0 0 0 0 0 0 
0 0 0 0 6.6727e-10 0 0 3.29713e-09 0 
0 0 0 0 0 0 6.9708e-10 1.01174e-09 0 
0 0 0 0 0 0 0 0 0 
4.86523e-09 0 0 8.4621e-07 0 8.42062e-07 8.82296e-09 0 6.28857e-10 
0 0 0 0 0 0 0 0 0 
0 0 0 0 3.50841e-09 0 0 0 0 
2.2852e-09 1.16688e-09 0 0 0 0 0 0 0 
0 0 0 0 0 0 0 0 0 
0 0 0 0 0 0 0 0 0 
0 0 0 0 1.47209e-09 3.12159e-09 0 0 0 
0 0 0 0 0 0 0 0 0 
0 0 0 0 2.04734e-10 0 0 0 0 
1.51081e-09 0 5.16804e-09 0 0 4.11221e-09 0 0 0 
0 0 0 0 6.8412e-10 0 0 0 0 
6.76026e-07 2.9364e-09 0 0 0 8.80321e-07 0 3.76748e-09 2.54308e-09 
0 0 1.96523e-10 0 0 0 0 0 0 
4.36771e-10 0 1.31496e-09 0 4.55091e-09 0 0 0 7.17205e-07 
2.24682e-09 0 0 0 0 0 0 0 0 
0 0 0 0 0 0 0 0 0 
0 0 0 0 0 0 1.08765e-10 0 0 
0 0 8.78309e-10 0 0 0 0 6.44195e-07 0 
0 1.35976e-09 0 0 0 0 0 0 0 
0 0 0 0 6.48373e-07 0 0 0 0 
0 0 0 0 9.07109e-07 8.93562e-07 0 0 0 
0 0 0 0 0 0 0 0 0 
2.46887e-09 8.73303e-09 0 0 0 1.36986e-09 0 0 1.80308e-09 
0 0 0 3.19938e-10 0 0 0 0 0 
1.572e-09 0 0 0 0 1.23545e-08 7.00024e-07 0 0 
0 0 0 0 0 0 0 0 0 
0 0 0 0 0 0 0 0 0 
0 0 0 0 0 0 0 0 0 
0 0 0 0 0 0 0 1.43896e-09 1.78037e-09 
0 0 0 0 0 0 0 0 0 
1.82563e-10 0 0 0 3.04491e-09 0 0 2.44917e-09 0 
0 0 0 0 0 1.13973e-08 0 0 0 
0 0 0 0 0 0 0 0 0 
0 0 0 0 0 0 0 0 0 
0 0 0 0 0 0 0 0 0 
0 0 1.64307e-09 0 0 0 0 2.10526e-09 0 
5.07738e-09 0 7.11512e-07 0 0 0 0 0 0 
0 0 0 0 0 0 0 0 0 
0 0 0 0 0 0 0 0 0 
2.8522e-10 3.84506e-10 0 0 8.19547e-10 0 0 0 0 
1.22093e-09 0 0 0 0 0 0 0 0 
0 0 0 0 0 2.48075e-09 0 0 5.86724e-10 
0 0 0 0 1.04273e-09 0 0 0 3.552e-09 
2.11577e-10 0 0 0 0 0 0 0 0 
0 0 0 0 0 0 1.76214e-09 0 2.99804e-09 
2.53758e-09 0 0 0 0 0 0 0 0 
0 0 0 0 0 0 6.87664e-07 1.16814e-09 1.42063e-09 
0 0 3.44412e-09 2.4351e-09 0 0 0 0 0 
0 0 0 0 0 0 0 0 0 
0 0 0 0 0 0 0 0 0 
0 0 0 0 0 0 0 0 0 
0 0 0 4.67633e-10 0 0 0 0 0 
0 0 0 8.63451e-10 0 0 0 1.91672e-09 1.35631e-09 
0 0 0 0 2.03206e-09 8.63839e-09 6.7775e-07 0 0 
1.52802e-09 0 8.71139e-10 0 0 0 0 0 0 
0 0 0 0 0 0 9.39542e-10 0 0 
0 0 0 0 0 0 4.04921e-09 3.15189e-09 0 
0 0 0 6.54385e-07 0 1.94784e-09 7.33484e-10 0 0 
3.69723e-09 0 0 0 0 2.5491e-09 0 0 0 
0 0 0 0 0 0 0 0 0 
0 0 0 0 0 0 0 0 0 
0 0 0 1.51032e-09 0 2.06579e-09 0 0 0 
1.28657e-09 0 0 0 0 0 0 0 0 
0 0 0 0 0 0 6.48098e-07 0 0 
0 0 0 0 0 0 0 0 3.51062e-09 
0 0 1.12752e-09 0 0 0 0 0 0 
0 0 0 0 0 0 0 0 0 
0 0 0 0 0 2.57979e-09 6.22516e-09 6.49574e-07 0 
0 0 0 0 8.41738e-09 3.90592e-09 0 0 0 
0 1.55632e-09 0 0 0 0 0 1.04002e-09 1.51453e-09 
0 3.91967e-10 0 0 0 0 0 0 0 
0 0 0 0 0 0 0 0 0 
0 0 0 0 0 7.59682e-10 6.44436e-07 4.71166e-09 3.58053e-09 
0 0 0 0 0 0 0 0 0 
0 0 0 0 0 9.66878e-10 1.74006e-09 0 0 
0 0 0 0 0 0 8.67391e-10 1.21977e-09 0 
2.72772e-09 0 0 0 0 0 0 6.7775e-07 0 
0 9.02372e-10 0 0 0 0 0 0 0 
0 0 0 0 4.08055e-09 0 0 2.92051e-09 0 
0 0 0 8.08679e-10 0 0 0 0 0 
0 0 0 3.66975e-09 0 0 0 6.60421e-07 0 
0 0 5.31199e-10 0 0 0 0 0 0 
0 0 0 0 0 0 0 0 0 
0 0 0 0 1.02338e-09 0 0 0 2.36863e-09 
0 0 0 0 0 0 0 0 0 
0 6.49857e-10 0 0 0 0 0 0 5.89648e-10 
0 7.41011e-10 0 0 0 0 0 0 3.84716e-10 
0 0 0 0 3.23901e-10 0 2.57837e-09 0 0 
0 0 0 0 0 0 0 0 0 
0 0 0 0 0 6.48689e-07 4.37414e-09 4.42141e-09 0 
0 0 0 0 0 1.15321e-09 0 0 0 
3.35351e-09 0 6.57267e-07 3.12915e-09 0 1.85765e-09 0 1.84142e-09 0 
0 0 0 0 0 0 0 0 0 
0 0 0 0 0 0 0 0 0 
0 0 0 0 0 0 0 0 0 
1.56998e-09 4.896e-10 0 0 0 0 0 0 0 
0 0 0 0 5.91033e-10 0 0 0 0 
0 0 1.16361e-09 0 0 0 0 7.39249e-10 0 
0 0 0 1.51314e-09 0 0 0 9.16969e-10 3.76184e-09 
0 0 0 9.85839e-07 9.13895e-07 0 0 4.02742e-10 0 
0 0 0 0 0 0 0 0 0 
9.50837e-10 8.40068e-10 0 0 0 0 7.1533e-10 0 0 
0 0 0 0 0 0 0 0 0 
0 0 0 0 0 0 0 0 0 
0 0 0 0 0 0 0 0 0 
0 0 0 0 0 0 0 0 0 
1.2885e-09 0 0 0 0 0 0 0 0 
0 0 0 0 0 0 1.17282e-09 1.23861e-09 0 
0 0 0 0 0 0 0 4.57186e-10 0 
0 0 0 0 0 0 0 0 0 
0 0 0 8.31319e-07 0 0 6.73793e-09 0 0 
4.93639e-10 5.09345e-10 0 0 0 0 0 7.3703e-10 9.03547e-10 
0 0 0 0 0 0 0 0 0 
2.95793e-09 8.06751e-10 1.79868e-09 0 0 0 1.09825e-09 0 0 
0 0 1.83988e-09 0 0 0 0 0 0 
0 0 0 0 0 0 0 0 0 
0 0 0 0 0 0 0 0 5.24305e-10 
0 0 0 0 0 0 0 0 0 
0 0 0 0 0 0 1.89625e-09 0 0 
0 0 5.36972e-10 0 0 0 4.19239e-09 6.47251e-07 0 
0 0 0 0 1.65998e-09 0 0 0 0 
6.70653e-07 0 3.36302e-09 0 0 0 0 0 0 
0 0 0 0 0 0 0 0 0 
0 0 0 0 0 0 0 0 4.57897e-09 
6.66175e-07 0 0 1.49454e-09 1.21296e-09 0 0 0 0 
1.73785e-09 6.56797e-07 0 0 0 0 0 0 0 
0 0 0 0 0 0 0 0 0 
0 0 0 0 0 0 0 0 1.66822e-10 
0 0 0 5.77848e-09 0 0 0 0 0 
0 0 0 0 0 5.85363e-09 6.78985e-07 0 0 
0 0 0 1.25357e-09 0 0 0 3.37302e-09 0 
2.70854e-09 0 0 0 0 0 0 1.81141e-09 0 
0 6.21076e-09 0 0 0 0 0 3.63279e-09 2.46945e-10 
0 5.7723e-10 0 0 0 0 0 0 0 
0 0 0 0 0 0 0 0 0 
0 0 0 2.51805e-09 0 0 0 0 2.18957e-09 
0 1.12872e-08 0 0 0 0 0 0 0 
0 0 0 0 0 0 0 0 0 
0 0 0 0 0 0 0 0 0 
0 0 0 6.44044e-07 0 0 0 0 0 
0 0 0 0 6.79478e-07 0 0 0 5.64063e-09 
0 0 0 5.16498e-10 0 0 0 3.45631e-09 0 
1.98198e-09 2.08394e-09 0 0 0 0 1.05496e-09 1.23698e-09 6.566e-07 
4.60995e-09 3.42139e-09 0 0 0 0 0 1.97955e-09 0 
0 0 0 0 0 0 8.33043e-10 0 0 
0 0 0 0 0 0 0 0 1.61664e-09 
0 0 0 0 0 2.05852e-09 0 0 5.38379e-09 
0 0 2.27997e-09 0 0 0 0 0 0 
0 0 0 0 0 0 0 0 0 
0 0 0 0 0 0 0 0 0 
0 0 0 0 2.15191e-09 0 0 0 1.30322e-09 
0 0 0 0 0 0 0 0 0 
0 1.89647e-09 0 1.60372e-09 0 0 3.716e-09 0 0 
2.05182e-09 0 0 9.95682e-10 0 0 0 0 0 
1.18286e-09 2.43248e-09 1.25344e-09 0 0 0 0 0 0 
0 0 1.44763e-09 6.67972e-07 4.89728e-09 0 0 7.96587e-10 0 
0 0 0 0 0 0 0 0 0 
0 0 0 0 0 1.5667e-09 0 2.26932e-09 0 
6.52335e-07 0 0 0 2.24632e-09 1.03851e-09 0 0 0 
0 0 0 0 0 0 0 0 0 
0 0 0 0 0 0 0 0 0 
0 0 0 1.07605e-09 0 0 0 0 8.87854e-10 
0 0 0 2.66478e-09 0 0 0 0 1.90604e-09 
2.31678e-09 2.50921e-09 7.37902e-07 3.62329e-09 0 0 0 6.63226e-07 2.45925e-09 
0 0 0 6.84355e-10 0 2.7347e-09 0 0 0 
7.76388e-10 2.03575e-09 0 2.41511e-10 0 0 0 0 0 
0 0 0 0 0 0 0 0 7.39582e-10 
0 0 0 0 0 0 0 0 0 
0 0 0 9.83074e-07 1.0842e-06 0 0 0 0 
0 0 0 0 0 0 0 0 0 
0 0 0 0 0 0 0 0 0 
0 0 0 0 0 0 0 0 0 
0 0 0 0 0 0 0 0 0 
0 6.11671e-10 0 0 0 7.08055e-07 2.18406e-09 0 1.84958e-09 
0 0 4.06509e-09 1.0403e-09 0 0 0 0 2.31063e-09 
2.21868e-09 0 0 0 0 6.71901e-07 2.04877e-09 1.23492e-09 1.64186e-09 
0 0 0 0 0 0 0 0 0 
5.42845e-10 0 0 0 0 0 4.01813e-09 0 5.33471e-10 
0 0 0 0 0 0 0 0 0 
0 0 0 0 0 9.49503e-07 0 0 3.89252e-09 
1.70732e-09 0 0 0 0 6.08384e-10 0 0 7.66608e-07 
0 0 1.57481e-09 0 0 0 0 0 0 
0 0 0 0 0 0 0 0 0 
0 0 0 0 0 0 0 0 0 
0 0 0 0 0 0 1.45343e-09 0 1.22893e-09 
0 0 0 0 7.43758e-07 0 2.30448e-09 0 3.08011e-09 
0 0 0 4.07676e-09 0 0 0 0 0 
2.20591e-09 0 9.14348e-11 0 0 0 0 0 0 
0 0 0 0 0 0 0 6.80428e-07 0 
0 1.7951e-09 4.96781e-10 0 0 0 0 0 0 
0 0 0 1.13873e-09 0 0 0 0 0 
2.11961e-09 3.51918e-09 0 0 0 0 0 0 0 
0 7.70236e-07 0 0 0 0 0 0 0 
0 0 0 0 0 0 0 0 0 
0 0 0 0 0 0 0 0 0 
0 0 0 0 0 6.59181e-09 6.9585e-07 3.21307e-09 0 
4.23354e-09 0 0 1.92906e-09 0 0 0 0 1.70467e-09 
0 0 3.64983e-09 6.64613e-07 8.09075e-10 9.94559e-10 0 1.7115e-09 0 
0 0 1.25821e-09 0 1.72898e-09 0 1.01563e-09 0 0 
0 0 2.25925e-09 7.6319e-07 8.09854e-09 0 0 0 0 
1.96279e-09 0 7.66512e-09 0 7.37954e-10 0 0 1.10041e-09 1.13126e-09 
0 0 1.19622e-09 0 0 0 0 4.41455e-09 1.25185e-09 
0 6.68406e-07 3.82545e-09 1.9847e-09 0 8.31911e-10 0 0 0 
0 0 0 3.16858e-09 0 0 0 0 0 
0 0 0 0 0 0 0 0 0 
0 0 0 0 0 0 0 0 0 
0 0 0 0 0 0 2.92897e-09 0 0 
0 0 0 3.18146e-10 0 0 7.58409e-10 0 2.50204e-09 
0 0 0 0 0 1.02308e-08 0 1.74828e-09 0 
6.72114e-07 0 2.44625e-09 0 0 3.05771e-09 0 0 0 
0 0 0 0 0 7.66204e-07 0 1.67284e-09 0 
0 0 0 4.5061e-09 0 0 2.68032e-09 1.37632e-09 0 
0 3.69492e-10 0 0 0 0 0 0 0 
0 2.64908e-09 0 1.43696e-09 0 0 0 0 0 
0 0 0 0 2.63184e-09 0 0 0 0 
0 0 0 0 0 0 0 0 0 
0 0 0 0 0 0 0 0 0 
0 0 0 0 0 0 0 0 0 
0 1.45844e-09 0 0 0 0 0 0 6.74636e-07 
0 0 2.01563e-09 2.02285e-09 1.11663e-09 0 0 4.00696e-09 0 
0 0 0 0 0 0 6.62018e-07 0 0 
0 0 0 1.48277e-09 0 0 0 0 0 
0 0 0 0 0 9.63858e-07 1.77949e-09 0 0 
0 0 2.91851e-09 0 6.55501e-07 0 0 0 0 
0 1.81941e-09 2.65556e-09 0 0 0 0 0 0 
0 0 4.76651e-09 0 0 0 0 8.23516e-10 0 
0 0 0 0 0 0 0 0 0 
0 0 0 0 0 0 0 0 0 
0 0 0 0 0 0 0 0 0 
0 0 0 0 0 0 0 0 0 
0 0 0 0 0 0 0 0 0 
0 7.60832e-10 0 1.35333e-09 0 0 0 0 0 
1.55629e-09 1.05142e-09 0 0 0 0 1.92676e-09 0 0 
0 0 0 0 0 0 0 0 0 
0 0 0 0 0 4.19166e-09 2.67258e-09 0 0 
0 0 0 0 0 0 8.53695e-10 0 0 
3.22099e-09 0 0 5.10139e-09 8.23419e-07 0 0 0 0 
0 0 0 0 0 0 0 0 0 
0 0 0 0 0 0 0 0 0 
0 0 0 0 0 0 0 0 0 
0 1.14123e-09 0 0 0 0 0 5.1568e-10 0 
0 0 0 2.34981e-09 0 0 0 0 0 
0 0 1.82261e-09 0 0 3.43718e-09 2.80544e-09 0 2.48311e-09 
0 1.75987e-09 1.47851e-09 0 0 0 0 0 0 
0 0 0 0 0 0 0 1.00383e-06 9.88816e-09 
0 0 0 0 2.18953e-09 0 0 0 2.6029e-09 
0 5.66839e-10 0 2.3925e-09 0 0 0 0 0 
0 0 3.78501e-09 0 9.82847e-07 0 0 0 0 
0 0 0 0 0 0 0 0 0 
0 0 0 0 0 0 0 0 0 
0 0 0 0 0 0 0 0 1.75878e-09 
6.51408e-09 0 1.23196e-09 0 0 0 0 0 6.51417e-07 
4.27019e-09 0 0 1.73609e-09 0 0 2.14239e-09 0 5.61311e-10 
0 0 0 0 0 1.14143e-09 0 6.72043e-07 0 
0 0 0 0 0 0 0 0 0 
6.28694e-10 0 0 0 2.81195e-09 0 0 0 9.42418e-07 
0 0 0 0 7.48193e-07 0 0 1.60413e-11 0 
0 0 0 0 0 0 0 1.82328e-09 0 
0 6.777e-07 1.25027e-09 0 0 9.19337e-07 0 0 0 
1.15841e-09 0 0 0 0 0 0 0 0 
0 0 0 0 0 0 0 0 0 
0 0 0 0 0 0 0 0 0 
0 0 0 6.15693e-10 3.25927e-10 0 1.38095e-09 0 0 
2.82681e-09 2.16651e-09 0 1.33871e-09 0 0 0 0 0 
0 0 0 0 0 0 0 0 8.607e-10 
0 1.36001e-09 2.46557e-09 0 0 2.50671e-09 0 0 0 
1.35849e-09 0 0 2.15096e-09 0 1.07101e-09 1.51888e-09 0 0 
6.28493e-09 0 0 9.50036e-07 0 1.47033e-09 0 3.83298e-09 0 
0 4.32149e-09 0 1.78602e-09 3.687e-09 0 6.65666e-07 0 0 
1.68379e-09 0 3.97389e-09 1.3718e-09 3.73674e-09 0 0 0 0 
0 0 4.77779e-10 0 0 0 0 0 0 
0 0 0 0 0 0 0 0 0 
0 0 0 0 0 0 0 0 0 
0 5.27877e-09 6.77203e-07 5.69613e-09 0 7.30024e-10 0 0 0 
0 0 3.02724e-09 0 0 0 6.64631e-10 1.19317e-09 6.52203e-07 
0 1.40103e-09 0 0 0 0 0 0 0 
0 0 6.99427e-09 7.38498e-07 0 3.41137e-09 0 1.83551e-09 0 
0 1.73189e-09 0 1.67406e-09 0 0 0 0 0 
0 0 1.27934e-09 0 9.14295e-07 0 0 4.24447e-09 0 
6.97689e-07 0 0 6.86776e-07 4.81848e-09 0 0 4.72176e-09 3.09154e-09 
0 2.22455e-09 4.03299e-09 0 0 0 0 0 0 
0 5.41657e-10 0 0 0 0 0 0 0 
0 0 0 0 0 0 0 0 0 
0 0 0 0 0 0 2.98494e-10 0 0 
0 0 0 0 0 0 0 0 0 
0 0 0 0 0 0 0 0 0 
1.0575e-09 0 0 0 4.04944e-10 0 0 0 0 
1.15784e-09 0 0 0 0 0 7.67084e-07 0 4.55811e-10 
0 0 0 0 0 0 0 0 0 
0 0 0 0 0 0 0 6.09381e-10 0 
0 0 0 0 4.07991e-09 0 6.13752e-09 0 0 
0 0 0 0 0 5.14495e-09 4.7948e-09 0 0 
0 0 0 0 0 0 0 0 0 
0 0 0 0 0 0 0 0 0 
0 0 0 0 0 0 0 0 0 
0 0 0 0 0 3.17014e-09 0 6.39205e-10 0 
0 4.92628e-10 2.84432e-09 7.88617e-10 0 0 0 0 1.00492e-09 
3.51422e-11 0 0 0 0 0 0 0 0 
0 0 2.15439e-09 1.3108e-09 0 0 0 1.10768e-09 2.78479e-09 
3.05671e-09 0 0 0 6.80027e-07 0 0 0 0 
0 0 1.51302e-09 0 0 0 0 0 0 
0 0 7.23372e-10 0 0 0 0 6.23597e-09 0 
1.05536e-09 0 4.23198e-09 0 0 7.7898e-07 0 0 4.85051e-10 
0 0 0 0 0 0 0 0 0 
0 0 0 0 0 0 0 0 0 
0 0 0 0 0 0 0 0 0 
1.12343e-09 0 0 8.75891e-07 8.93479e-07 0 0 1.67164e-10 0 
0 0 0 6.19833e-09 0 0 0 0 0 
2.15179e-09 0 0 1.82184e-09 0 0 0 0 0 
0 0 0 0 0 0 0 8.78226e-07 1.26755e-09 
0 0 0 0 4.54953e-09 1.75941e-09 0 0 6.75026e-07 
0 1.28224e-09 0 0 6.60945e-07 0 0 0 0 
0 0 0 2.4434e-09 1.55909e-09 0 3.37866e-09 0 0 
0 0 6.84421e-07 0 0 0 0 7.67387e-07 0 
0 0 0 0 0 0 0 0 0 
0 0 0 0 0 0 0 0 0 
0 0 0 0 0 0 0 0 0 
0 1.48543e-09 0 0 0 0 5.65385e-09 0 0 
1.90406e-09 1.39022e-09 0 0 0 6.44789e-07 7.57105e-09 2.86989e-09 9.53423e-10 
0 8.02008e-10 0 1.76236e-09 6.51253e-07 2.59143e-09 1.76246e-09 0 0 
6.5174e-10 0 4.30628e-10 0 0 0 0 0 0 
0 0 0 0 4.97587e-09 0 0 0 9.01048e-10 
0 5.31934e-09 0 0 0 0 0 0 0 
1.71273e-09 0 6.59547e-07 0 0 0 2.30042e-09 2.06824e-10 0 
6.83948e-07 0 0 2.80879e-09 0 1.30072e-09 0 0 0 
0 0 0 0 0 0 0 0 0 
0 0 0 0 0 0 0 0 0 
0 0 0 0 0 0 0 0 0 
0 0 8.73431e-10 1.00266e-09 1.93233e-09 0 0 0 0 
0 0 1.34214e-09 4.99291e-10 0 0 0 0 1.74471e-09 
0 0 0 0 0 3.75657e-09 0 0 0 
0 8.77115e-10 0 0 0 0 0 9.92752e-07 1.15627e-06 
1.04972e-06 0 0 1.49781e-09 7.74711e-07 0 0 3.31022e-09 4.28977e-09 
0 0 3.27843e-09 0 0 0 0 0 0 
0 0 2.13084e-09 2.96307e-09 0 4.52362e-10 3.15424e-09 1.09171e-09 0 
1.44592e-09 0 0 0 0 8.41522e-10 0 1.54251e-09 6.83559e-10 
3.18254e-09 0 1.02926e-09 0 0 0 0 0 0 
0 0 0 0 0 0 0 0 0 
0 0 0 0 0 0 0 0 0 
0 0 0 0 0 5.46647e-09 0 0 6.99814e-09 
8.74989e-07 0 0 1.18764e-09 0 0 0 0 0 
0 0 0 0 0 1.10502e-09 1.71226e-09 0 0 
0 0 0 0 0 0 0 0 0 
1.65125e-09 0 0 0 0 0 5.42029e-09 7.35159e-07 0 
0 3.59323e-09 0 0 0 0 0 0 0 
0 3.48705e-10 0 0 0 0 0 0 6.62752e-07 
1.25454e-09 0 0 0 2.86231e-09 1.04604e-09 0 0 0 
0 0 0 0 0 0 0 0 0 
0 0 0 0 0 0 0 0 0 
0 0 0 0 0 0 0 0 0 
0 0 0 0 0 0 0 0 4.25201e-09 
0 8.65201e-07 0 0 0 0 0 1.11796e-09 0 
6.98754e-10 0 0 0 0 0 0 0 9.18288e-10 
0 0 0 0 0 0 0 0 0 
0 2.21553e-09 0 2.02406e-09 0 7.41202e-07 0 0 3.6825e-09 
0 0 0 0 3.72789e-10 0 0 0 0 
0 0 0 0 0 0 0 0 0 
0 0 0 0 0 2.20221e-09 0 0 0 
0 3.62271e-10 0 0 0 0 0 0 0 
0 0 0 0 0 0 0 0 0 
0 0 0 0 0 0 0 0 0 
0 0 0 0 1.20015e-09 0 1.1701e-09 0 0 
0 0 1.78497e-08 0 2.61166e-09 0 0 0 0 
0 0 0 0 0 0 0 0 0 
0 0 0 1.80677e-09 0 0 0 2.20276e-09 0 
4.42739e-09 7.10035e-07 3.05619e-09 0 0 0 6.97279e-09 3.50659e-09 5.39639e-09 
0 0 0 0 8.6515e-07 0 0 0 0 
0 0 0 0 0 0 0 2.67715e-10 0 
1.05728e-09 0 1.64314e-09 0 0 1.82089e-09 2.45508e-09 0 1.13434e-09 
1.23071e-09 4.73481e-10 0 0 0 0 0 0 0 
0 0 0 0 0 0 0 0 0 
0 0 0 0 0 0 0 0 0 
0 0 0 0 0 0 0 0 0 
0 0 1.63009e-09 0 0 0 5.45583e-10 0 0 
0 0 0 0 0 0 0 0 0 
0 0 0 0 0 2.96955e-09 6.4694e-07 5.36314e-09 1.30398e-09 
0 3.74696e-09 0 0 0 1.90323e-09 0 2.48423e-09 0 
0 0 0 0 2.42119e-09 8.6151e-07 0 3.56997e-09 1.57509e-09 
0 0 0 0 0 0 0 0 0 
0 0 0 0 3.8144e-10 7.06203e-10 0 0 2.30192e-09 
0 0 0 0 0 0 0 0 0 
0 0 0 0 0 0 0 0 0 
0 0 0 0 0 0 0 0 0 
0 0 0 0 0 0 0 3.97414e-09 0 
0 1.60069e-09 0 9.83715e-10 0 0 0 0 1.3514e-09 
0 0 0 0 0 0 0 0 0 
0 0 0 0 0 0 0 3.10455e-09 0 
0 0 0 2.09351e-09 0 0 0 0 0 
0 0 0 0 0 0 0 0 0 
0 0 0 0 0 0 0 0 0 
0 0 0 0 0 0 1.51772e-09 0 6.52398e-07 
0 1.77912e-09 0 0 0 0 0 0 0 
0 0 0 0 0 0 0 0 0 
0 0 0 0 0 0 0 0 0 
0 0 0 0 0 0 0 0 6.44291e-07 
0 0 9.39274e-10 0 2.17218e-09 3.46514e-09 0 4.04649e-10 9.88209e-10 
1.03587e-09 0 0 0 0 0 0 0 0 
0 0 0 0 0 0 0 0 7.42793e-10 
0 0 0 0 7.10397e-10 0 0 6.72946e-10 0 
0 0 0 0 0 1.43323e-09 0 4.99299e-09 0 
1.98324e-09 0 0 0 4.16946e-09 0 7.51063e-10 6.98505e-10 0 
0 0 0 0 0 0 0 0 3.55793e-09 
1.85242e-09 0 0 0 0 1.47341e-09 0 0 0 
0 0 0 0 0 0 0 0 0 
0 0 0 0 0 0 0 0 0 
0 0 0 0 0 0 0 0 2.15189e-09 
1.44353e-09 0 2.95431e-10 0 0 0 9.65703e-10 0 0 
0 0 0 0 0 0 0 0 0 
0 0 0 0 1.31203e-09 0 0 0 8.53032e-10 
0 0 0 0 0 8.27199e-10 0 0 0 
0 0 0 0 0 0 0 0 0 
0 0 2.31523e-09 0 1.19195e-09 6.82809e-07 0 3.03852e-09 0 
0 0 0 0 0 0 0 0 0 
0 0 0 0 0 0 0 1.29789e-09 0 
0 0 0 0 0 0 0 0 0 
0 0 0 0 0 0 0 0 0 
0 0 0 0 0 0 0 0 0 
0 2.20353e-09 1.64587e-09 1.22099e-09 0 0 0 3.26665e-09 6.59508e-07 
4.4235e-09 0 0 0 0 0 0 0 0 
4.17857e-10 4.03288e-10 0 0 1.57782e-10 1.03718e-09 0 0 0 
0 0 0 0 0 0 0 3.87038e-10 0 
0 0 0 0 0 0 0 0 1.49546e-09 
0 0 2.73159e-09 7.47499e-10 0 0 0 0 3.25333e-09 
0 0 0 0 0 0 0 0 0 
1.32906e-09 0 0 0 0 1.94286e-09 0 0 0 
0 0 0 0 0 0 0 0 0 
0 0 0 0 0 0 0 0 0 
0 0 0 0 0 0 0 0 0 
0 7.18926e-10 0 0 9.82528e-10 0 0 0 0 
0 0 4.47461e-09 0 6.73154e-07 0 0 1.59856e-09 0 
0 0 0 0 0 4.57805e-11 0 9.5044e-10 0 
0 0 0 0 8.61151e-10 0 0 2.63657e-09 0 
0 0 0 0 0 0 0 0 0 
0 6.34976e-10 0 0 0 6.7921e-07 6.51613e-09 0 0 
3.91692e-09 0 0 0 0 0 0 0 0 
0 7.07826e-10 2.01917e-09 0 6.52495e-07 4.13489e-09 0 0 2.64716e-09 
0 1.63397e-09 0 0 0 0 0 0 0 
0 0 0 0 0 0 0 0 0 
0 0 0 0 0 0 0 0 0 
0 0 0 0 0 0 0 0 0 
0 0 0 0 0 0 0 0 0 
0 0 0 0 3.83782e-09 0 0 2.80587e-09 0 
0 0 2.66455e-09 0 0 0 2.56696e-09 6.4543e-07 0 
4.5573e-09 0 0 0 0 0 0 0 0 
6.47058e-07 4.35355e-09 0 1.19707e-09 0 0 0 0 0 
1.4693e-08 6.62931e-07 0 2.12432e-09 0 0 0 0 0 
0 0 1.22045e-09 0 0 0 0 0 0 
0 0 8.56464e-07 0 0 0 0 0 0 
0 0 0 0 0 0 0 0 0 
0 0 0 0 0 0 0 0 0 
0 0 0 0 0 0 0 0 0 
0 0 0 0 0 0 4.71164e-09 0 0 
1.31461e-09 2.17784e-10 0 0 9.07848e-10 0 6.70976e-07 0 3.67635e-09 
0 0 0 0 0 0 2.28495e-09 5.36992e-10 0 
0 0 4.48157e-10 0 0 0 0 0 0 
0 0 1.47501e-09 0 0 0 3.66244e-09 0 0 
0 0 0 2.65724e-09 0 0 0 0 0 
0 0 0 0 0 0 0 0 7.2928e-10 
0 2.85601e-09 0 8.56767e-07 5.09296e-09 0 0 0 0 
0 0 0 0 0 0 0 0 0 
0 0 0 0 0 0 0 0 0 
0 0 0 0 0 0 0 0 1.15903e-09 
0 1.84527e-09 0 0 0 7.75826e-09 6.9551e-07 2.84912e-09 2.60438e-09 
8.97046e-10 2.75636e-09 0 0 0 0 0 0 0 
0 0 0 8.14047e-07 0 1.08763e-09 0 1.83636e-09 0 
0 0 9.77038e-11 0 0 0 0 0 0 
2.31574e-09 0 0 0 0 0 0 0 0 
5.75283e-10 0 0 0 0 0 2.12698e-10 0 0 
0 0 0 0 0 0 1.86421e-09 0 0 
0 0 0 0 0 0 1.39078e-09 0 4.02601e-10 
0 0 0 0 0 0 0 0 0 
0 0 0 0 0 0 0 0 0 
0 0 0 0 0 0 4.00827e-09 1.09457e-09 4.62575e-09 
0 1.16748e-09 0 2.58751e-09 8.11358e-07 0 0 0 2.99086e-09 
6.79899e-10 0 0 0 0 0 0 0 0 
0 0 7.35665e-07 0 2.16538e-09 7.87385e-07 9.0227e-09 0 0 
1.2888e-09 1.82616e-09 0 0 0 0 0 0 0 