# vtk DataFile Version 5.1
vtk output
ASCII
DATASET STRUCTURED_POINTS
DIMENSIONS 100 100 1
SPACING 1 1 1
ORIGIN 0 0 0
POINT_DATA 10000
FIELD FieldData 6
feature_1 1 10000 float
0 0 0 0 0 0 0 0 0 
0 0 0 0 0 0 0 0 0 
0 0 0 0 0 0 0 0 0 
0 0 0 0 0 0 0 0 0 
0 0 0 0 0 0 0 0 0 
0 0 0 0 0 0 0 0 0 
0 0 0 0 0 0 0 0 0 
0 0 0 0 0 0 0 0 0 
0 0 0 0 0 0 0 0 0 
0 0 0 0 0 0 0 0 0 
0 0 0 0 0 0 0 0 0 
0 0 0 0 0 0 0 0 0 
0 0 0 0 0 0 0 0 0 
0 0 0 0 0 0 0 0 0 
0 0 0 0 0 0 0 0 0 
0 0 0 0 0 0 0 0 0 
0 0 0 0 0 0 0 0 0 
0 0 0 0 0 0 0 0 0 
0 0 0 0 0 0 0 0 0 
0 0 0 0 0 0 0 0 0 
0 0 0 0 0 0 0 0 0 
0 0 0 0 0 0 0 0 0 
0 0 0 0 0 0 0 0 0 
0 0 0 0 0 0 0 0 0 
0 0 0 0 0 0 0 0 0 
0 0 0 0 0 0 0 0 0 
0 0 0 0 0 0 0 0 0 
0 0 0 0 0 0 0 0 0 
0 0 0 0 0 0 0 0 0 
0 0 0 0 0 0 0 0 0 
0 0 0 0 0 0 0 0 0 
0 0 0 0 0 0 0 0 0 
0 0 0 0 0 0 0 0 0 
0 0 0 0 0 0 0 0 0 
0 0 0 0 0 0 0 0 0 
0 0 0 0 0 0 0 0 0 
0 0 0 0 0 0 0 0 0 
0 0 0 0 0 0 0 0 0 
0 0 0 0 0 0 0 0 0 
0 0 0 0 0 0 0 0 0 
0 0 0 0 0 0 0 0 0 
0 0 0 0 0 0 0 0 0 
0 0 0 0 0 0 0 0 0 
0 0 0 0 0 0 0 0 0 
0 0 0 0 0 0 0 0 0 
0 0 0 0 0 0 0 0 0 
0 0 0 0 0 0 0 0 0 
0 0 0 0 0 0 0 0 0 
0 0 0 0 0 0 0 0 0 
0 0 0 0 0 0 0 0 0 
0 0 0 0 0 0 0 0 0 
0 0 0 0 0 0 0 0 0 
0 0 0 0 0 0 0 0 0 
0 0 0 0 0 0 0 0 0 
0 0 0 0 0 0 0 0 0 
0 0 0 0 0 0 0 0 0 
0 0 0 0 0 0 0 0 0 
0 0 0 0 0 0 0 0 0 
0 0 0 0 0 0 0 0 0 
0 0 0 0 0 0 0 0 0 
0 0 0 0 0 0 0 0 0 
0 0 0 0 0 0 0 0 0 
0 0 0 0 0 0 0 0 0 
0 0 0 0 0 0 0 0 0 
0 0 0 0 0 0 0 0 0 
0 0 0 0 0 0 0 0 0 
0 0 0 0 0 0 0 0 0 
0 0 0 0 0 0 0 0 0 
0 0 0 0 0 0 0 0 0 
0 0 0 0 0 0 0 0 0 
0 0 0 0 0 0 0 0 0 
0 0 0 0 0 0 0 0 0 
0 0 0 0 0 0 0 0 0 
0 0 0 0 0 0 0 0 0 
0 0 0 0 0 0 0 0 0 
0 0 0 0 0 0 0 0 0 
0 0 0 0 0 0 0 0 0 
0 0 0 0 0 0 0 0 0 
0 0 0 0 0 0 0 0 0 
0 0 0 0 0 0 0 0 0 
0 0 0 0 0 0 0 0 0 
0 0 0 0 0 0 0 0 0 
0 0 0 0 0 0 0 0 0 
0 0 0 0 0 0 0 0 0 
0 0 0 0 0 0 0 0 0 
0 0 0 0 0 0 0 0 0 
0 0 0 0 0 0 0 0 0 
0 0 0 0 0 0 0 0 0 
0 0 0 0 0 0 0 0 0 
0 0 0 0 0 0 0 0 0 
0 0 0 0 0 0 0 0 0 
0 0 0 0 0 0 0 0 0 
0 0 0 0 0 0 0 0 0 
0 0 0 0 0 0 0 0 0 
0 0 0 0 0 0 0 0 0 
0 0 0 0 0 0 0 0 0 
0 0 0 0 0 0 0 0 0 
0 0 0 0 0 0 0 0 0 
0 0 0 0 0 0 0 0 0 
0 0 0 0 0 0 0 0 0 
0 0 0 0 0 0 0 0 0 
0 0 0 0 0 0 0 0 0 
0 0 0 0 0 0 0 0 0 
0 3.74238e-11 0 0 0 0 0 0 0 
0 0 0 0 0 0 0 6.45438e-10 0 
0 0 0 0 0 0 0 0 0 
0 0 0 0 0 0 0 0 0 
0 0 0 0 0 0 0 0 0 
0 0 0 0 0 0 0 0 0 
0 0 0 0 0 0 0 0 0 
0 0 0 0 0 0 0 0 0 
0 0 0 0 0 0 0 0 0 
0 0 0 0 0 0 0 0 0 
0 0 0 0 0 0 0 0 0 
0 0 0 0 0 0 0 0 0 
0 0 0 0 0 0 0 0 0 
0 1.75315e-09 0 0 0 0 0 0 0 
0 0 0 0 0 0 0 2.33071e-09 0 
0 0 0 0 0 0 0 0 0 
0 0 0 0 0 5.23929e-10 0 0 0 
0 0 0 0 0 0 0 0 0 
0 0 0 0 0 0 0 0 0 
0 0 0 0 0 0 0 0 0 
0 0 0 0 0 0 0 0 0 
0 0 0 0 0 0 0 0 0 
0 0 0 0 0 0 0 0 0 
0 0 0 0 0 0 0 0 1.68869e-09 
0 0 0 0 0 0 0 0 0 
0 0 0 0 0 0 0 0 0 
0 0 0 0 0 0 0 0 0 
0 0 0 0 4.18053e-10 0 0 0 0 
0 0 0 0 0 0 0 0 0 
0 0 0 0 0 0 0 0 0 
0 0 0 0 0 0 0 0 0 
0 0 0 0 0 0 0 0 0 
0 0 0 0 0 0 0 0 0 
0 0 0 0 0 0 0 0 0 
0 0 0 0 0 0 0 0 0 
0 0 0 7.84764e-07 6.72112e-09 2.18035e-09 0 0 0 
0 0 0 0 0 0 0 1.32954e-09 6.40492e-07 
1.37519e-09 0 0 0 0 0 0 0 0 
0 0 0 0 0 0 0 5.1798e-10 0 
0 0 0 0 0 0 0 0 0 
0 0 0 0 0 0 0 0 0 
0 0 0 0 0 0 0 0 0 
0 0 0 0 0 0 0 0 0 
0 0 0 0 0 0 0 0 0 
0 0 0 0 0 0 5.50845e-10 0 0 
0 0 0 1.33758e-09 1.26282e-10 0 0 0 0 
3.18434e-09 0 0 8.24784e-07 0 6.48694e-09 0 0 0 
8.32805e-10 0 0 0 0 6.2739e-10 0 0 0 
0 0 1.87999e-09 1.15232e-09 0 0 0 0 0 
0 0 0 0 0 0 0 0 0 
0 1.54158e-09 0 0 0 0 0 0 0 
0 0 0 0 0 0 0 0 0 
0 0 0 0 0 0 0 0 0 
0 0 0 0 0 0 0 0 0 
0 0 0 0 0 0 0 0 0 
0 0 0 0 4.43221e-09 6.42429e-07 0 1.54514e-09 0 
0 0 0 1.45185e-09 0 8.12434e-09 0 0 1.1648e-09 
0 0 0 0 0 0 0 0 0 
0 0 0 0 0 0 0 0 6.24354e-10 
0 0 0 0 0 0 0 0 0 
0 0 0 0 0 0 1.51529e-09 0 0 
6.41948e-07 1.45036e-09 0 0 0 0 0 0 0 
0 0 0 0 0 0 0 0 0 
0 0 0 0 0 0 0 0 0 
0 0 0 0 0 0 0 0 0 
0 0 0 0 0 0 0 0 0 
0 0 0 0 0 0 0 0 0 
8.59232e-10 0 0 0 0 3.90843e-09 6.42134e-07 4.82288e-09 2.74155e-09 
0 0 0 0 0 0 7.8906e-07 0 0 
6.67802e-10 0 0 0 0 0 0 0 0 
0 0 1.27508e-09 0 0 0 0 0 0 
0 0 0 0 9.60362e-10 0 0 0 0 
0 3.99983e-10 0 0 0 0 0 0 0 
0 0 0 0 0 0 0 0 0 
0 0 0 0 0 0 0 0 0 
0 0 0 0 0 0 0 0 0 
0 0 0 0 0 0 0 0 0 
0 0 0 0 0 0 1.80519e-09 0 0 
0 0 0 0 0 0 2.34092e-09 0 0 
0 0 0 0 0 7.3414e-07 1.24542e-08 0 0 
0 0 6.8365e-07 0 0 1.13191e-09 0 0 0 
0 0 0 0 1.49098e-09 0 1.76627e-09 0 2.01913e-09 
0 0 0 8.07474e-10 0 0 0 0 0 
0 0 0 0 0 0 0 0 0 
9.01427e-11 0 0 0 0 0 0 0 0 
0 0 0 0 0 0 0 0 0 
0 0 0 0 0 0 0 0 0 
0 0 0 0 0 0 0 0 0 
0 0 0 0 0 6.44347e-10 0 5.26146e-09 0 
1.59338e-09 0 0 4.16723e-10 0 0 0 0 2.40202e-09 
0 0 0 0 0 0 0 0 0 
0 0 0 0 0 0 1.18274e-09 3.4004e-10 3.34589e-10 
0 0 0 0 0 0 0 7.13301e-07 0 
7.1307e-07 8.48784e-09 0 0 0 0 0 0 6.61894e-07 
0 0 0 0 0 0 0 0 0 
0 0 0 0 0 0 0 0 0 
0 0 0 0 0 0 0 0 0 
0 0 0 0 0 0 0 0 0 
0 0 0 0 0 0 0 0 0 
0 0 0 0 0 3.78181e-09 0 1.34793e-09 0 
0 0 0 0 0 0 0 0 0 
0 1.386e-09 0 4.66458e-09 5.55236e-09 0 0 0 0 
0 0 0 0 0 0 1.71418e-09 0 0 
0 0 0 0 0 1.35745e-09 0 0 0 
0 0 2.51174e-09 0 0 3.15495e-10 0 0 0 
0 0 1.99136e-09 2.41249e-09 1.64567e-09 0 0 0 0 
0 0 0 0 0 0 0 0 0 
0 0 0 0 0 0 0 0 0 
0 0 0 0 0 0 0 0 0 
0 0 0 0 0 0 0 0 0 
0 0 0 0 0 0 0 2.16866e-09 0 
4.0061e-09 6.45026e-07 7.79218e-10 0 0 0 0 0 0 
0 0 0 0 6.46013e-07 0 0 0 0 
0 8.89329e-07 9.05642e-07 0 2.28195e-09 7.12977e-07 0 0 0 
0 0 0 0 0 0 0 1.74214e-09 0 
0 1.71242e-09 8.91379e-10 0 0 1.25672e-09 0 0 0 
2.0431e-09 0 0 1.18933e-09 0 0 0 0 0 
0 0 0 0 0 0 0 8.02714e-10 0 
0 0 0 0 0 0 0 0 0 
0 0 0 0 0 0 0 0 0 
0 0 0 0 0 0 0 0 0 
0 0 0 7.4032e-10 2.23173e-09 4.52426e-09 6.42402e-07 5.51113e-09 0 
0 2.7851e-09 3.53488e-09 0 0 0 0 0 0 
0 0 0 0 0 0 0 0 1.70664e-09 
0 0 0 0 0 0 2.0112e-09 0 1.18272e-09 
0 0 0 0 0 0 0 0 0 
0 0 3.40891e-10 0 0 0 0 0 0 
0 0 9.73916e-10 0 0 0 0 0 0 
4.29908e-10 0 0 0 0 0 1.43883e-09 1.46321e-09 0 
0 0 0 0 0 0 0 0 0 
0 0 0 0 0 0 0 0 0 
0 0 0 0 0 0 0 0 0 
0 0 0 0 0 0 0 0 5.24764e-09 
2.16472e-09 0 1.15608e-09 0 0 6.41739e-10 0 0 0 
0 5.82676e-10 0 0 0 0 0 0 6.44475e-10 
1.88336e-09 0 0 0 0 0 0 3.57536e-09 0 
1.25521e-09 0 0 0 0 2.44844e-10 0 0 0 
0 0 0 0 0 1.39564e-09 0 0 0 
0 0 0 0 0 0 0 0 1.55178e-09 
0 4.92328e-10 0 0 0 0 0 1.29585e-09 0 
0 0 0 0 0 0 0 0 0 
0 0 0 0 0 0 0 0 0 
0 0 0 0 0 0 0 0 0 
0 0 0 0 1.44593e-09 0 0 0 0 
0 0 0 0 1.05308e-09 0 0 0 0 
0 0 0 0 0 0 9.23034e-10 9.24408e-10 0 
5.71651e-10 0 0 0 0 1.99504e-09 0 0 0 
0 3.71515e-10 1.48746e-09 0 0 0 0 0 0 
0 0 0 0 0 0 0 4.75188e-09 0 
1.64621e-10 0 0 0 0 1.65247e-09 0 0 7.73564e-10 
0 0 0 0 0 0 0 0 0 
7.13107e-07 0 0 1.63944e-09 0 0 0 0 0 
0 0 0 0 0 0 0 0 0 
0 0 0 0 0 0 0 0 0 
0 0 0 0 0 1.55688e-10 0 0 0 
1.00329e-09 6.98702e-10 0 4.02375e-10 0 0 0 9.61107e-10 0 
0 0 0 4.12571e-10 0 0 7.69241e-10 0 0 
5.82315e-10 0 0 0 1.61776e-09 0 0 8.68606e-07 8.65861e-07 
0 0 0 0 0 0 0 0 0 
3.46886e-10 0 0 0 0 0 0 0 6.42553e-07 
0 0 0 4.2476e-10 0 0 0 0 0 
0 6.50379e-07 7.81968e-09 0 0 0 0 0 0 
5.66211e-09 1.79155e-09 0 0 0 0 0 0 0 
0 0 0 0 0 0 0 0 0 
0 0 0 0 0 0 0 0 0 
6.59217e-10 0 0 0 0 0 0 1.4398e-09 0 
0 6.25721e-10 0 0 0 0 0 0 0 
1.66623e-09 0 0 0 0 7.62837e-10 0 0 0 
0 0 0 0 0 0 0 1.42796e-10 3.38977e-09 
0 0 2.281e-09 0 2.98529e-10 1.11971e-09 6.41178e-07 1.9775e-09 0 
1.19643e-09 0 0 0 0 0 0 2.76286e-09 0 
0 0 0 0 0 0 4.74044e-09 0 0 
0 0 1.59047e-09 0 3.564e-09 0 0 0 0 
1.1727e-09 0 7.19688e-07 1.81829e-09 0 2.77664e-10 0 0 0 
0 0 0 0 0 0 0 0 0 
0 0 0 0 0 0 0 0 0 
0 1.07485e-09 0 1.28099e-09 1.41851e-09 0 0 1.17422e-09 0 
0 0 0 2.00978e-10 0 0 0 0 0 
0 0 2.85464e-09 0 1.19817e-09 0 1.17356e-09 0 0 
0 0 0 0 0 0 0 2.17474e-09 0 
4.41369e-09 5.27979e-11 0 0 2.37171e-09 0 7.10093e-10 2.62057e-09 0 
0 0 9.85831e-10 0 0 0 0 5.95637e-10 0 
5.44906e-10 0 1.94556e-09 0 0 0 9.62037e-09 6.49344e-07 5.19176e-09 
0 0 0 0 0 0 0 6.72553e-10 0 
0 0 4.10745e-09 0 0 0 0 0 0 
0 0 0 0 0 0 0 0 0 
0 0 0 0 0 0 0 0 0 
0 0 0 0 0 0 0 0 0 
7.12053e-07 0 0 0 0 0 0 0 0 
0 0 4.30556e-09 6.42804e-07 0 0 1.87978e-09 0 6.93429e-07 
0 2.67406e-09 1.494e-09 0 0 0 0 1.15662e-09 0 
0 0 0 0 0 0 0 0 0 
0 0 0 0 0 0 0 0 0 
0 0 1.37213e-09 0 0 0 0 0 3.42931e-09 
0 0 2.95175e-09 0 0 0 0 0 0 
0 0 0 3.11387e-09 0 0 1.25986e-09 0 0 
0 0 0 0 0 0 0 0 0 
0 0 0 0 0 0 0 0 0 
0 0 0 6.54673e-07 0 0 0 0 7.67678e-07 
0 0 0 0 0 0 0 0 0 
0 0 1.15653e-09 1.36302e-09 0 0 0 0 0 
0 0 6.99928e-07 0 0 3.76347e-09 0 0 0 
0 1.34749e-09 3.24555e-09 0 0 6.9796e-10 0 0 0 
1.06029e-09 0 0 0 0 0 0 0 3.33851e-10 
0 1.11246e-09 0 0 0 0 0 0 0 
0 0 0 0 0 6.51222e-07 0 0 0 
0 4.03602e-10 0 0 1.01386e-09 0 0 0 0 
0 0 0 0 0 0 0 0 0 
0 0 0 0 0 0 0 0 0 
0 0 1.80422e-09 3.66067e-09 0 0 0 0 0 
0 0 3.91397e-09 2.29e-09 0 0 8.11399e-10 0 0 
0 0 0 0 0 0 0 0 0 
2.01198e-09 0 0 0 0 0 2.73774e-09 6.00443e-09 0 
0 6.04071e-09 6.98296e-07 0 0 0 0 0 0 
4.50171e-10 0 0 0 0 2.81349e-09 4.24079e-09 0 0 
0 0 0 0 0 0 1.79863e-09 0 0 
0 0 2.3296e-09 0 0 0 0 0 0 
0 0 0 0 0 6.67607e-07 0 0 0 
3.20217e-10 0 0 0 0 0 0 0 0 
0 0 0 0 0 0 0 0 0 
0 0 0 7.00048e-10 5.20598e-10 0 0 0 7.0449e-07 
9.31007e-09 0 7.35878e-07 4.34341e-09 2.44166e-09 0 0 0 0 
0 9.91936e-10 0 0 0 0 0 8.75602e-10 0 
0 1.13315e-09 1.38721e-09 0 0 0 0 0 0 
0 0 0 7.75805e-09 0 0 0 0 0 
0 0 0 0 1.24798e-09 0 6.5418e-07 4.899e-09 2.97474e-09 
0 0 0 0 0 0 6.45955e-07 2.14582e-09 1.87092e-09 
0 0 7.02259e-09 3.62098e-09 2.58275e-09 0 0 0 4.51339e-10 
0 0 1.05143e-09 0 0 0 0 3.83477e-10 0 
0 0 0 0 0 0 0 0 0 
0 0 0 0 0 0 0 0 0 
0 0 0 0 0 0 2.54068e-09 2.62222e-09 0 
0 0 0 0 0 0 0 1.06142e-09 3.01625e-09 
0 0 0 0 0 0 0 0 0 
0 0 0 0 0 0 0 0 0 
6.95541e-07 0 0 7.17176e-07 4.7224e-09 0 0 0 0 
0 0 0 0 0 0 0 3.09435e-09 0 
0 0 0 1.89837e-09 1.52926e-09 0 4.70442e-09 0 3.60541e-09 
0 0 4.66443e-09 6.4617e-07 0 0 1.27752e-09 0 1.12145e-09 
0 0 0 0 2.31512e-09 0 0 0 0 
0 0 0 0 0 0 0 0 0 
0 0 0 0 0 0 0 0 0 
0 0 0 0 0 0 0 0 0 
0 0 0 1.85868e-09 1.25037e-09 0 1.87575e-09 3.28111e-09 3.05443e-10 
0 8.63845e-07 0 0 0 0 0 0 0 
0 0 0 0 0 0 0 7.14513e-07 0 
5.92643e-09 0 0 0 0 0 0 0 0 
0 0 0 8.90372e-10 1.70474e-09 0 1.86393e-09 4.16655e-09 0 
2.3613e-09 0 0 0 0 0 0 3.86377e-10 0 
0 0 0 0 0 0 0 9.50621e-10 0 
3.92377e-10 0 0 0 2.99629e-09 0 0 6.70779e-07 0 
0 0 0 0 0 0 0 0 0 
0 0 0 0 0 0 0 0 0 
0 0 0 0 0 0 0 0 0 
0 0 1.34024e-09 0 1.52096e-09 0 0 0 0 
3.78563e-09 1.54067e-09 8.76914e-07 0 0 0 0 0 4.05493e-10 
0 0 0 0 0 2.9486e-09 0 6.19231e-09 0 
0 0 3.04157e-09 2.98176e-09 0 0 0 0 0 
0 0 0 0 0 1.344e-09 0 5.36141e-07 0 
0 3.4885e-09 0 0 0 0 2.70445e-09 3.2908e-09 0 
0 0 1.02446e-09 2.26706e-09 4.28715e-10 0 0 0 0 
0 0 0 0 0 0 1.91625e-09 0 0 
0 0 0 0 0 0 0 0 0 
0 0 0 0 0 0 0 0 0 
0 0 0 0 0 0 0 0 0 
0 0 0 0 0 0 0 0 0 
0 0 0 0 0 0 6.78652e-07 4.27518e-09 0 
0 6.79831e-10 0 0 0 0 0 0 0 
0 0 0 0 0 0 0 0 0 
0 0 0 0 0 0 0 0 5.61783e-09 
0 0 0 0 7.41274e-07 0 7.96234e-07 0 0 
0 0 0 0 0 0 0 0 0 
0 0 0 0 0 3.64432e-09 6.51636e-07 0 0 
0 0 0 0 0 0 0 0 0 
0 0 0 0 0 0 0 0 0 
0 0 0 0 0 0 0 0 0 
0 0 0 0 0 0 0 0 0 
2.27592e-09 1.60358e-09 0 0 7.04458e-10 4.82227e-09 1.41279e-09 4.81389e-09 8.62972e-10 
0 1.7317e-09 0 0 0 0 0 0 0 
8.90431e-07 9.04446e-07 0 3.88224e-09 0 5.52395e-10 0 0 4.81546e-09 
0 0 0 0 0 0 0 0 0 
4.59043e-10 1.73724e-09 2.02126e-09 0 0 0 0 3.89051e-09 0 
1.55371e-09 0 0 0 0 1.06097e-09 0 0 0 
1.11274e-10 0 0 0 0 0 2.58469e-09 2.43447e-09 0 
2.39636e-09 2.86288e-09 0 0 0 0 0 0 0 
0 0 0 0 0 0 0 0 0 
0 0 0 0 0 0 0 0 0 
0 0 0 0 0 0 0 0 0 
0 0 0 2.37439e-09 0 0 0 0 0 
0 5.75945e-10 0 0 0 0 0 0 0 
0 0 0 0 0 0 0 0 3.75782e-09 
0 0 2.2503e-09 0 3.79038e-09 0 0 0 0 
0 2.7407e-09 0 0 0 0 0 0 3.63735e-09 
0 0 0 7.28361e-07 0 1.5948e-09 0 0 0 
0 0 0 0 0 0 0 0 0 
0 0 0 0 0 0 0 0 0 
0 0 0 0 0 0 0 0 0 
0 0 0 0 0 0 0 0 0 
0 0 0 0 0 0 0 0 0 
0 0 0 3.81457e-09 7.07943e-07 0 9.10228e-09 0 0 
4.27875e-09 3.6234e-09 0 2.40366e-09 0 0 0 0 1.15948e-09 
0 0 0 0 0 0 0 0 0 
0 7.54443e-07 0 0 0 6.54044e-07 0 0 0 
0 7.57755e-10 0 0 0 0 0 0 0 
8.22613e-07 0 0 0 2.81982e-09 0 0 0 4.32522e-10 
0 0 0 0 0 0 0 0 0 
0 0 0 1.94778e-10 0 0 0 0 0 
0 0 0 0 0 0 0 0 0 
0 0 0 0 0 0 0 0 0 
0 0 0 6.52766e-10 0 0 0 0 0 
0 0 0 0 0 0 0 7.71101e-07 4.52997e-09 
0 0 0 6.49252e-07 0 0 1.45523e-09 0 0 
0 1.64983e-09 0 0 7.05117e-07 0 0 0 0 
0 0 1.07532e-08 0 0 0 4.39329e-09 0 0 
0 0 0 0 0 0 8.11507e-10 0 0 
0 0 9.52304e-10 0 7.4054e-07 6.74281e-09 0 0 0 
0 0 0 0 0 0 0 0 0 
0 0 0 0 0 0 0 0 0 
0 0 0 0 0 0 0 0 0 
0 0 0 0 0 0 0 0 0 
0 0 0 0 0 0 1.13693e-09 0 0 
0 0 0 0 2.97963e-10 0 0 0 5.53527e-09 
0 0 0 3.65736e-09 4.80686e-09 0 1.33854e-09 0 0 
0 0 4.84286e-10 0 0 0 0 9.84995e-10 0 
0 8.70767e-07 0 8.1239e-07 2.54329e-09 4.29322e-09 0 3.57617e-10 1.95054e-09 
1.4013e-09 0 0 0 0 0 0 0 0 
0 0 2.64109e-09 0 0 0 0 0 0 
0 0 0 0 0 0 0 0 0 
0 0 0 0 0 0 0 0 0 
0 0 0 0 0 0 0 0 0 
0 0 0 0 0 0 0 0 0 
0 0 0 0 0 0 0 0 0 
4.99672e-10 0 0 2.53562e-10 0 0 2.11093e-09 2.20924e-09 1.05915e-08 
7.26077e-07 0 0 1.59832e-09 0 0 0 0 0 
0 0 0 0 4.49513e-10 0 0 9.37218e-09 0 
0 8.49487e-07 0 0 0 0 0 0 0 
0 0 0 0 0 6.62149e-07 0 3.62214e-09 0 
0 1.95006e-09 0 0 4.33001e-09 0 0 0 0 
0 4.4111e-10 0 0 0 0 0 0 0 
0 0 6.05129e-10 0 0 0 0 6.9915e-10 0 
0 0 0 0 0 0 0 0 0 
0 0 0 0 0 0 0 0 0 
0 0 0 0 0 0 0 6.39929e-07 0 
0 0 0 0 0 0 0 0 0 
0 0 0 0 1.90606e-09 1.18241e-09 0 0 3.85382e-10 
0 0 0 0 0 0 0 0 0 
7.47039e-07 0 0 0 0 0 0 0 0 
0 0 0 0 0 0 5.06791e-09 0 3.67848e-09 
0 0 0 0 0 0 2.71006e-09 0 1.66031e-09 
9.79086e-10 0 0 0 0 0 0 0 0 
0 0 0 0 0 0 0 0 0 
0 0 0 0 0 0 0 0 0 
0 0 0 0 0 0 0 0 0 
0 0 0 0 0 0 2.19398e-09 2.32129e-09 0 
0 0 0 0 0 5.09901e-10 0 5.66286e-10 0 
1.5511e-09 1.37836e-09 1.73413e-10 0 0 0 0 0 0 
0 0 0 0 0 9.34199e-10 0 2.92839e-09 0 
0 0 0 0 0 0 0 1.52531e-09 0 
0 0 0 0 0 0 0 0 0 
4.48715e-09 0 0 8.37313e-07 0 8.33221e-07 9.26209e-09 0 0 
0 0 0 0 0 0 0 0 0 
3.7044e-10 0 0 0 3.64493e-09 0 0 0 0 
2.03383e-09 0 0 0 0 0 0 0 0 
0 0 0 0 0 0 0 0 0 
0 0 0 0 0 0 0 0 0 
0 0 0 0 1.6291e-09 0 0 0 0 
0 0 0 0 0 0 0 0 0 
0 0 0 0 0 0 0 0 0 
1.90448e-09 0 4.76214e-09 0 0 4.52576e-09 0 0 0 
0 0 0 0 0 0 0 0 0 
6.7014e-07 2.72218e-09 0 0 0 8.71685e-07 0 3.77197e-09 2.88915e-09 
6.76018e-10 0 0 0 0 0 0 0 3.24951e-10 
0 0 0 0 4.19762e-09 0 0 0 7.10419e-07 
0 0 0 3.64644e-10 0 0 0 0 0 
0 0 0 0 0 0 0 0 0 
0 0 0 0 0 0 0 0 0 
0 0 0 0 0 0 0 6.40039e-07 0 
0 0 0 0 0 0 0 3.6568e-10 0 
0 0 0 0 6.44364e-07 0 0 0 0 
0 0 0 0 8.98062e-07 8.8425e-07 0 0 0 
0 0 0 0 0 0 0 0 0 
2.98001e-09 9.33997e-09 0 0 0 1.75162e-09 0 0 1.71111e-09 
0 0 0 0 0 5.32526e-10 0 0 0 
1.48622e-09 0 0 0 0 5.59731e-09 6.93379e-07 0 0 
0 0 4.23464e-10 0 0 0 0 0 0 
0 0 0 0 0 0 0 0 0 
0 0 0 0 0 0 0 0 0 
0 0 0 0 0 0 0 1.32476e-09 1.8696e-09 
0 0 0 0 0 0 0 0 0 
0 0 0 0 0 0 0 2.29796e-09 0 
0 0 0 0 0 1.13061e-08 0 0 0 
0 0 0 0 0 0 0 0 8.80134e-10 
0 0 0 0 0 0 0 0 0 
0 0 3.16357e-10 0 0 0 0 0 0 
0 0 1.68113e-09 0 0 0 0 1.80956e-09 0 
4.96362e-09 0 7.04799e-07 0 0 0 0 0 0 
0 0 0 0 0 0 0 0 0 
0 0 0 0 0 0 0 0 0 
0 0 0 0 0 0 0 0 0 
0 0 0 0 0 0 0 0 0 
0 0 0 0 0 2.54729e-09 0 0 0 
0 0 0 0 7.40676e-10 0 0 9.35724e-10 3.34807e-09 
0 0 0 0 6.92118e-10 0 0 0 0 
0 0 0 0 0 0 1.71265e-09 0 2.97255e-09 
2.74454e-09 0 0 0 0 0 0 0 0 
0 0 0 0 0 0 6.8148e-07 1.03755e-09 1.54813e-09 
0 0 4.04283e-09 2.53269e-09 0 0 0 0 0 
0 0 0 0 0 0 0 0 0 
0 0 0 0 0 0 0 0 0 
0 0 0 0 0 0 0 0 0 
0 0 0 5.31823e-10 0 0 0 0 0 
0 0 0 0 0 0 0 1.85253e-09 0 
0 0 0 0 1.95608e-09 3.24182e-09 6.72021e-07 0 0 
0 0 1.23287e-09 0 0 0 0 0 0 
0 0 0 0 0 0 0 0 0 
0 0 0 0 0 0 3.7579e-09 0 1.09958e-09 
1.19944e-09 0 0 6.49819e-07 0 1.72708e-09 0 0 0 
3.61966e-09 0 0 0 0 2.39194e-09 0 0 0 
0 0 0 0 0 0 0 0 0 
0 0 0 0 0 0 0 0 0 
0 0 0 0 0 1.85449e-09 0 0 0 
6.0861e-10 0 0 0 0 0 0 0 0 
0 0 0 0 0 0 6.44381e-07 0 0 
0 0 0 0 0 0 0 0 3.12201e-09 
0 0 0 0 0 0 0 0 0 
0 0 0 0 0 0 0 0 0 
0 0 1.39769e-09 0 0 2.25828e-09 5.73376e-09 6.45118e-07 0 
0 0 0 0 8.70901e-09 0 0 0 0 
0 1.56048e-09 0 0 0 0 0 0 0 
0 4.88902e-10 0 0 0 0 0 0 0 
0 0 0 0 0 0 0 0 0 
0 0 0 0 0 0 6.40599e-07 4.30058e-09 1.6494e-09 
0 0 0 0 0 0 0 0 0 
0 0 0 0 0 1.11798e-09 2.16927e-09 0 0 
0 0 6.19764e-10 0 0 0 0 1.21513e-09 0 
2.53896e-09 0 0 7.85563e-10 0 0 1.47197e-09 6.71521e-07 0 
0 7.88727e-10 0 0 0 0 0 0 0 
0 0 0 0 0 0 0 2.67306e-09 0 
0 9.69638e-11 0 0 0 0 0 0 1.10381e-09 
0 0 0 4.0494e-09 0 0 0 6.55655e-07 0 
0 0 0 0 0 0 0 0 0 
0 0 0 0 0 0 0 0 0 
0 0 0 0 8.66929e-10 0 0 0 2.73107e-09 
0 0 0 0 0 0 0 0 0 
0 0 0 0 0 0 0 0 7.05692e-10 
0 1.33975e-09 6.75527e-10 5.85371e-10 0 0 0 0 0 
0 0 0 0 6.99083e-10 0 2.36729e-09 0 0 
0 0 0 0 0 0 0 0 0 
0 1.52813e-10 0 0 0 6.44402e-07 4.50211e-09 4.39196e-09 0 
0 0 0 0 0 9.8574e-10 0 0 0 
3.7117e-09 0 6.52189e-07 3.10047e-09 0 1.84329e-09 0 1.57697e-09 0 
0 0 0 0 0 0 0 0 0 
0 0 0 0 0 0 0 0 0 
0 0 0 0 0 0 0 0 0 
1.78023e-09 0 0 0 0 0 0 0 0 
0 0 2.84809e-10 0 6.53475e-10 0 0 0 0 
1.31588e-09 0 8.88714e-10 0 0 0 0 0 0 
0 0 0 6.14997e-10 0 0 0 0 0 
0 0 0 9.75994e-07 9.04682e-07 0 0 4.70413e-10 0 
0 0 0 0 0 0 0 0 0 
1.07305e-09 0 0 1.53541e-10 0 0 6.18266e-10 0 0 
0 0 1.16731e-09 0 0 0 0 0 0 
0 0 0 0 0 0 0 0 0 
0 0 0 0 0 0 0 0 0 
0 0 0 0 0 0 0 0 2.48226e-09 
8.99665e-10 0 0 0 0 0 0 0 0 
0 0 0 0 0 0 0 0 0 
0 3.65536e-10 0 0 0 0 0 7.1612e-10 3.45623e-10 
6.2117e-10 0 9.63545e-11 0 0 0 0 0 0 
0 0 0 8.22084e-07 0 0 7.41425e-09 0 0 
0 0 0 0 0 0 0 0 0 
0 0 0 0 0 0 0 0 0 
3.03092e-09 0 1.74776e-09 0 0 0 1.31095e-09 0 0 
0 0 1.97314e-09 0 0 0 0 0 0 
0 0 0 0 0 0 0 0 0 
0 0 0 0 0 0 0 0 0 
0 0 0 0 0 0 0 0 0 
8.67771e-10 0 0 0 0 0 2.14425e-09 0 3.54835e-10 
0 0 0 2.82653e-10 0 0 4.21985e-09 6.42759e-07 0 
0 0 0 0 1.76872e-09 0 0 0 0 
6.64865e-07 0 3.86426e-09 0 0 0 0 0 0 
0 0 0 0 0 0 0 0 0 
0 0 5.36502e-10 5.86725e-10 0 0 0 0 5.16117e-09 
6.61007e-07 0 0 1.06686e-09 0 0 3.95399e-11 0 0 
2.0503e-09 6.52021e-07 0 0 0 0 0 0 0 
0 0 0 0 0 0 0 0 0 
0 0 0 0 0 0 0 0 0 
0 0 0 6.16124e-09 0 0 0 0 0 
0 0 0 0 0 6.23558e-09 6.72754e-07 0 0 
5.37581e-10 0 0 0 0 0 0 0 0 
2.5818e-09 0 0 0 0 0 2.7928e-10 1.74068e-09 0 
0 5.76154e-09 0 0 0 0 0 3.67451e-09 0 
0 7.97087e-10 0 0 0 0 0 0 0 
0 0 0 0 0 0 0 0 0 
0 0 0 2.72184e-09 0 0 0 0 1.98451e-09 
0 1.11016e-08 0 0 0 0 0 0 0 
0 0 0 0 0 0 0 0 0 
0 0 0 0 0 0 0 0 0 
0 0 0 6.40604e-07 0 0 0 0 0 
0 0 0 0 6.73673e-07 0 0 0 0 
0 0 0 0 0 0 0 3.71423e-09 0 
2.27888e-09 0 0 0 0 0 1.20018e-09 0 6.51861e-07 
4.55895e-09 3.38975e-09 0 0 0 0 0 1.7768e-09 0 
0 0 0 0 0 0 0 0 0 
0 0 0 0 0 0 0 0 2.16351e-09 
0 0 0 0 0 0 0 0 0 
0 0 2.48707e-09 0 0 0 0 0 0 
0 0 0 0 0 0 0 0 0 
0 0 0 0 0 0 0 0 0 
0 0 0 0 1.88428e-09 0 0 0 0 
0 0 0 8.00071e-10 0 0 1.31758e-09 0 0 
0 2.04996e-09 0 0 0 0 3.71706e-09 0 0 
2.37139e-09 0 9.43089e-10 0 0 0 0 0 0 
0 2.28181e-09 1.3341e-09 0 0 0 0 0 1.11747e-09 
0 0 1.68896e-09 6.63229e-07 5.20248e-09 0 0 0 0 
0 0 0 0 0 0 0 0 0 
0 0 0 0 0 1.48792e-09 0 2.15657e-09 0 
6.47805e-07 0 0 0 1.79394e-09 0 0 0 0 
0 0 0 0 0 0 0 0 0 
0 0 0 0 0 0 0 0 0 
0 0 0 7.43069e-10 0 7.56904e-10 0 0 1.02711e-09 
4.83427e-10 7.33608e-10 0 3.16497e-09 0 0 0 0 0 
2.30826e-09 2.48757e-09 7.3099e-07 3.62193e-09 0 3.41267e-09 0 6.57986e-07 2.53359e-09 
0 0 0 4.36642e-10 1.42001e-09 2.34225e-09 1.32362e-09 0 0 
0 2.19114e-09 0 4.99641e-10 0 0 0 0 0 
0 0 0 0 0 0 0 0 0 
0 0 0 0 0 0 0 0 4.13484e-10 
0 0 0 9.72845e-07 1.07376e-06 0 0 0 0 
0 0 0 0 4.82515e-10 0 0 0 0 
0 0 0 0 0 0 0 0 0 
0 0 0 0 0 0 0 0 0 
0 0 0 0 0 0 0 0 0 
0 0 0 0 0 7.01613e-07 2.23923e-09 0 1.93518e-09 
0 0 4.33498e-09 1.33368e-09 0 0 0 0 1.96237e-09 
2.47257e-09 0 0 0 0 6.66613e-07 1.79157e-09 1.41093e-09 1.64095e-09 
0 0 0 0 0 0 0 0 0 
0 0 0 0 0 0 3.91416e-09 0 0 
0 0 0 0 0 0 0 0 0 
0 0 0 0 0 9.76708e-07 0 0 4.12461e-09 
1.65e-09 0 0 0 0 1.30191e-09 0 0 7.59245e-07 
0 0 1.51036e-09 4.1945e-10 0 0 0 0 0 
0 0 0 0 0 0 0 0 0 
0 0 0 0 0 0 0 0 0 
0 0 0 0 0 0 0 0 0 
0 2.42558e-09 0 0 7.36593e-07 0 2.04562e-09 0 2.9635e-09 
8.44266e-10 0 0 4.00159e-09 0 0 0 0 0 
2.46237e-09 0 0 4.19853e-10 0 7.84181e-10 0 8.16098e-10 0 
0 0 0 0 0 0 0 6.74749e-07 0 
0 1.997e-09 0 0 0 0 0 0 0 
0 0 0 1.49039e-09 0 0 0 0 0 
0 3.94988e-09 0 0 0 0 0 0 0 
0 7.62887e-07 0 0 0 0 0 0 0 
0 0 0 0 0 0 0 0 0 
0 0 0 0 0 0 0 0 0 
1.2043e-10 0 5.87545e-10 0 0 6.5186e-09 6.90563e-07 3.30701e-09 0 
1.6395e-09 0 0 2.27737e-09 0 0 4.06125e-10 0 1.62301e-09 
0 0 3.99294e-09 6.59149e-07 1.11787e-09 1.17125e-09 0 0 0 
0 0 1.31845e-09 0 1.57596e-09 0 7.74335e-10 0 0 
0 0 2.41309e-09 7.57002e-07 8.29565e-09 0 7.70086e-10 0 0 
0 0 7.57894e-09 0 0 0 0 0 3.66473e-10 
0 4.94415e-10 1.34896e-09 0 0 0 9.70036e-10 4.45824e-09 8.7796e-10 
0 6.62583e-07 3.27476e-09 2.11744e-09 0 1.41647e-09 0 0 0 
0 0 0 3.02143e-09 0 0 0 0 0 
0 0 0 0 0 0 0 0 0 
0 0 0 0 0 0 0 0 0 
0 0 0 0 0 0 2.97456e-09 0 0 
0 0 0 7.75961e-10 0 0 4.76772e-10 0 3.11008e-09 
0 0 0 0 0 9.99565e-09 0 1.35681e-09 0 
6.66817e-07 0 2.09153e-09 0 0 2.84052e-09 0 0 0 
0 0 0 0 0 7.58953e-07 0 1.64116e-09 0 
0 0 0 4.39126e-09 0 0 0 0 0 
0 0 0 0 0 1.16359e-10 1.98326e-09 2.79866e-10 0 
0 2.86254e-09 0 0 0 0 0 0 0 
1.38095e-10 0 0 0 2.78071e-09 0 0 0 0 
0 0 0 0 0 0 0 0 0 
0 0 0 0 0 0 0 0 0 
0 0 0 0 0 0 0 0 0 
0 1.38887e-09 0 2.47752e-10 4.81581e-10 0 0 0 6.68704e-07 
0 0 1.6643e-09 0 0 0 0 4.07892e-09 0 
0 0 5.98165e-10 2.76852e-09 0 0 6.56816e-07 0 0 
0 0 0 1.72296e-09 0 0 0 0 0 
0 0 0 0 9.26077e-07 9.5399e-07 1.79306e-09 0 0 
0 0 0 6.57871e-10 6.50972e-07 0 0 0 0 
0 0 2.9663e-09 0 0 0 0 0 0 
0 0 5.4743e-09 0 0 0 0 0 0 
0 0 0 0 0 0 0 0 0 
0 0 0 0 0 0 0 0 0 
0 0 0 0 0 0 0 0 0 
0 0 0 4.89704e-10 0 0 0 0 0 
0 0 0 0 0 0 0 0 0 
0 0 0 0 0 8.92746e-10 0 0 0 
1.72563e-09 1.40473e-09 0 0 0 0 1.97092e-09 0 1.12591e-09 
0 0 0 0 0 0 0 0 0 
0 0 0 0 0 4.23494e-09 2.96075e-09 0 0 
1.5697e-09 0 0 0 0 1.65211e-10 0 4.68173e-10 0 
3.87705e-09 0 0 5.07258e-09 8.14738e-07 0 0 0 0 
0 0 0 0 0 0 0 0 0 
0 0 0 0 0 0 0 0 0 
0 0 0 0 2.27727e-10 0 0 0 0 
0 0 0 0 0 0 0 9.42621e-10 0 
0 0 0 1.07457e-09 0 0 0 0 0 
0 0 0 0 0 3.45315e-09 3.2014e-09 0 2.68539e-09 
0 1.55227e-09 1.33105e-09 0 0 0 0 0 0 
0 0 0 0 0 0 0 9.92273e-07 9.87238e-09 
0 0 0 0 2.45929e-09 0 0 0 2.47818e-09 
7.76655e-10 0 0 2.19312e-09 0 0 0 0 0 
0 0 4.00669e-09 0 9.73036e-07 0 0 0 1.10572e-09 
0 0 0 0 0 0 0 0 0 
0 0 0 0 0 0 0 0 0 
0 0 0 0 0 0 0 0 1.73598e-09 
5.01841e-09 0 0 0 5.10711e-10 0 0 0 6.46928e-07 
4.53815e-09 4.99494e-10 0 1.97623e-09 0 0 1.92403e-09 0 0 
0 0 0 0 0 1.10022e-09 0 6.66437e-07 0 
0 0 0 3.43744e-10 0 0 0 0 0 
9.31613e-10 0 0 0 2.38282e-09 0 0 0 9.31421e-07 
0 0 0 0 7.39948e-07 0 0 0 0 
0 0 0 0 0 0 0 1.89489e-09 2.92148e-09 
0 6.71939e-07 1.49992e-09 3.8208e-10 0 9.10186e-07 0 0 6.88194e-10 
1.16859e-09 0 0 0 0 0 0 0 0 
0 0 0 0 0 0 0 0 0 
0 0 0 0 0 0 0 0 0 
0 0 0 7.25854e-10 0 0 0 0 0 
2.95801e-09 1.95069e-09 0 1.01431e-09 0 0 1.47016e-09 0 0 
0 0 0 0 0 0 0 0 1.13012e-09 
0 1.288e-09 2.63622e-09 0 0 2.46262e-09 0 0 0 
1.12116e-09 0 0 2.03376e-09 0 8.26938e-10 1.50787e-09 0 0 
6.19442e-09 0 0 9.39401e-07 0 1.29065e-09 0 3.72058e-09 0 
9.57189e-10 4.50279e-09 0 2.23069e-09 3.04903e-09 0 6.60406e-07 0 0 
2.20015e-09 0 3.95173e-09 1.65907e-09 3.49062e-09 0 0 0 0 
0 0 0 0 0 0 0 0 0 
0 0 0 0 0 0 0 0 0 
0 0 0 0 0 0 0 0 0 
0 6.13286e-09 6.71938e-07 5.51984e-09 0 4.5847e-10 0 0 0 
2.54278e-10 6.59493e-10 1.67507e-09 8.38749e-10 0 0 0 0 6.47508e-07 
0 0 0 0 0 0 0 0 0 
0 0 6.74793e-09 0 0 4.07101e-09 0 1.26036e-09 0 
0 1.55473e-09 0 0 0 9.93056e-10 0 0 0 
0 0 1.43641e-09 0 9.04133e-07 0 0 4.19273e-09 0 
6.9078e-07 0 1.37919e-09 6.80768e-07 4.27272e-09 0 0 4.94955e-09 2.72259e-09 
0 2.30776e-09 0 0 0 0 0 0 2.00869e-09 
1.74958e-09 8.61895e-10 0 0 0 0 0 0 0 
0 0 0 0 0 0 0 0 0 
0 0 0 0 0 0 0 0 0 
0 0 0 0 0 6.63725e-10 1.24098e-10 0 0 
0 0 0 0 0 0 0 0 0 
1.18828e-09 0 0 0 4.96186e-10 0 0 0 0 
1.38365e-09 0 0 0 0 0 7.58216e-07 0 0 
0 1.42212e-09 0 0 0 0 0 0 0 
0 0 0 0 0 0 0 1.18074e-09 0 
0 6.87336e-10 0 9.66499e-10 4.42141e-09 0 5.89251e-09 0 0 
0 0 0 0 0 5.25535e-09 4.13486e-09 0 9.33224e-10 
0 0 0 0 0 0 0 0 0 
0 0 0 0 0 0 0 0 0 
0 0 0 0 0 0 0 0 0 
0 0 0 0 0 3.74237e-09 0 0 0 
3.8204e-10 0 3.11376e-09 0 0 0 4.70069e-11 0 1.13479e-09 
0 0 0 0 0 0 0 0 0 
4.3628e-10 0 0 1.44941e-09 0 0 0 0 2.80508e-09 
3.11794e-09 0 0 0 6.74264e-07 0 0 0 0 
0 0 1.4496e-09 0 0 0 0 0 0 
0 0 5.75749e-10 0 0 0 0 2.34541e-09 0 
9.69732e-10 0 4.18017e-09 0 0 7.71745e-07 0 0 0 
0 0 0 0 0 0 0 0 0 
0 0 0 0 0 0 0 0 0 
0 0 0 0 0 0 0 1.67525e-10 0 
9.535e-10 0 0 8.68142e-07 8.84622e-07 0 0 0 0 
0 0 0 6.44522e-09 0 0 0 0 3.01917e-10 
8.08281e-10 0 0 1.91603e-09 0 0 0 0 0 
0 0 0 0 0 0 0 8.66565e-07 1.18789e-09 
0 0 0 0 4.89471e-09 0 0 0 6.69381e-07 
0 0 0 0 6.55775e-07 0 0 0 0 
3.8017e-10 0 0 2.5614e-09 0 0 0 0 0 
0 0 6.78636e-07 0 0 0 0 7.6009e-07 0 
0 0 3.71171e-10 0 0 0 0 0 0 
0 0 0 0 0 0 0 0 0 
0 0 0 0 0 0 0 0 0 
0 1.55658e-09 0 0 0 0 5.59481e-09 0 0 
1.7526e-09 0 0 0 0 6.40936e-07 7.46454e-09 3.25035e-09 0 
0 9.09025e-10 0 1.90469e-09 6.46924e-07 0 1.72023e-09 0 0 
3.20602e-10 0 0 0 0 0 0 0 0 
0 0 0 0 4.6742e-09 6.7309e-10 0 0 7.38183e-10 
0 5.61754e-09 0 0 0 0 0 1.08125e-09 0 
1.78909e-09 0 6.54252e-07 0 0 0 2.46811e-09 0 0 
6.78363e-07 0 0 2.725e-09 0 1.42196e-09 0 0 0 
0 0 0 0 0 0 0 0 0 
0 0 0 0 0 0 0 0 0 
0 0 0 0 0 0 0 0 0 
0 0 6.84138e-10 0 1.86987e-09 0 0 0 0 
0 0 1.46753e-09 0 0 0 1.68314e-09 0 0 
0 0 0 0 0 3.15197e-09 0 0 0 
0 4.79189e-10 0 0 0 0 0 9.80938e-07 1.14324e-06 
1.03671e-06 0 0 1.81747e-09 7.65529e-07 0 0 3.20437e-09 0 
0 0 0 0 0 0 0 0 0 
0 0 2.0681e-09 2.42824e-09 0 1.03277e-09 3.42006e-09 0 0 
1.22609e-09 0 0 0 0 0 0 1.63374e-09 0 
3.05636e-09 0 0 0 0 0 0 0 0 
0 0 0 0 0 0 0 0 0 
0 0 0 0 0 0 0 0 0 
0 0 0 0 0 3.15752e-09 0 0 7.27411e-09 
8.67101e-07 0 0 0 0 0 0 0 0 
0 0 0 0 0 0 0 0 1.0437e-09 
0 0 0 0 0 0 0 0 0 
2.20495e-09 0 0 0 0 0 5.93852e-09 7.27011e-07 0 
0 3.9055e-09 0 0 0 5.49105e-10 0 0 0 
0 9.77689e-10 0 0 0 0 0 0 6.57698e-07 
0 0 0 0 4.41169e-10 0 0 5.25739e-10 0 
0 0 0 0 0 0 0 0 0 
0 0 0 0 0 0 0 0 0 
0 0 0 0 0 0 0 0 0 
0 0 0 0 0 0 0 0 0 
0 8.572e-07 0 6.81685e-10 0 0 0 0 0 
0 0 0 0 0 0 9.45368e-10 0 1.0708e-09 
0 0 0 0 0 0 1.01349e-09 0 0 
0 1.7093e-09 0 2.36686e-09 0 7.32742e-07 0 0 4.13201e-09 
0 0 0 0 4.30527e-10 0 0 0 0 
4.68479e-10 0 0 0 0 0 0 0 0 
0 0 2.06977e-09 0 0 0 0 0 0 
0 0 0 4.48115e-10 0 0 0 0 0 
0 0 0 0 0 0 0 0 0 
0 0 0 0 0 0 0 0 0 
0 0 0 0 0 0 0 0 0 
0 0 1.81601e-08 0 2.51522e-09 0 0 0 0 
0 0 0 0 0 0 0 0 0 
0 0 0 0 0 1.27107e-09 0 2.55734e-09 0 
4.35961e-09 7.03547e-07 2.91095e-09 0 0 0 6.78231e-09 3.95848e-09 5.90286e-09 
0 0 0 0 8.58086e-07 0 0 0 0 
0 0 0 0 0 0 0 0 0 
0 0 1.53606e-09 7.04846e-10 0 2.25208e-09 2.27074e-09 0 0 
1.2351e-09 0 0 0 0 0 0 0 0 
0 0 0 0 0 0 0 0 0 
0 0 0 0 0 0 0 0 0 
0 0 0 0 0 0 0 0 0 
0 0 1.9394e-09 4.28146e-10 0 0 0 0 0 
0 3.43959e-10 0 0 0 0 0 0 0 
2.33952e-10 0 0 0 0 3.15412e-09 0 5.79439e-09 1.24286e-09 
0 0 1.98269e-09 0 9.30556e-10 1.73253e-09 0 1.91085e-09 0 
1.26522e-09 0 0 0 2.61429e-09 8.54072e-07 0 3.91727e-09 1.92173e-09 
0 0 0 0 0 0 0 0 0 
0 0 0 0 5.63562e-10 5.81771e-10 0 0 2.31859e-09 
0 0 0 0 0 0 0 0 0 
0 0 0 0 0 0 0 0 0 
0 0 0 0 0 0 0 0 0 
0 0 0 0 0 0 0 4.06227e-09 0 
0 0 6.96633e-10 1.03543e-09 0 0 0 0 0 
0 3.82636e-10 0 0 0 0 0 0 0 
0 0 0 0 0 0 1.13354e-09 3.3209e-09 0 
0 0 0 1.73454e-09 0 0 0 0 0 
6.66921e-10 0 0 0 0 0 0 0 0 
0 0 0 0 0 8.93037e-10 0 0 0 
0 0 0 0 0 0 1.46217e-09 0 6.4815e-07 
0 1.68583e-09 0 0 0 0 0 0 0 
0 0 0 0 0 0 0 0 0 
0 0 0 0 0 0 0 0 0 
0 0 0 0 0 0 0 8.22809e-10 6.40154e-07 
0 0 1.16089e-09 0 0 0 2.35433e-10 0 1.23176e-09 
8.03502e-10 0 0 0 0 0 0 0 0 
0 0 0 0 4.51933e-10 0 0 0 6.81393e-10 
0 0 0 0 0 0 0 0 0 
0 0 0 0 0 1.49944e-09 0 5.0949e-09 0 
1.7542e-09 0 1.13535e-10 0 4.28376e-09 0 0 0 0 
0 0 0 0 0 0 0 0 3.08609e-09 
2.16673e-09 0 0 0 0 0 0 0 0 
0 0 0 0 0 0 0 0 0 
0 0 0 0 0 0 0 0 0 
0 0 0 0 0 0 0 0 2.22823e-09 
1.74072e-09 0 7.58783e-10 8.32739e-10 0 0 9.84023e-10 0 0 
0 0 0 0 0 0 0 0 0 
0 0 0 0 7.90347e-10 0 0 0 1.34964e-09 
0 0 0 0 0 0 0 0 0 
0 0 0 0 0 0 0 0 0 
0 0 2.7912e-09 0 1.44568e-09 6.771e-07 0 0 0 
0 0 0 0 0 0 0 0 0 
0 0 0 0 0 0 0 1.28395e-09 0 
0 0 0 0 0 0 0 0 0 
0 0 0 0 0 0 0 0 0 
0 0 0 0 0 0 0 0 0 
0 2.0996e-09 1.92194e-09 0 0 0 0 2.89062e-09 6.54267e-07 
4.66174e-09 0 0 1.97239e-09 0 0 0 0 0 
1.43669e-10 0 0 0 0 6.82034e-10 0 0 0 
0 0 0 0 0 0 0 0 0 
0 0 0 0 0 0 0 0 0 
0 0 2.47741e-09 0 0 0 0 0 3.42604e-09 
0 0 5.49087e-10 0 0 0 0 0 0 
1.08207e-09 0 0 0 0 0 0 0 0 
0 0 0 7.01179e-10 1.45106e-10 0 0 0 0 
0 0 0 0 0 0 0 0 0 
0 0 0 0 0 0 0 0 0 
0 0 0 0 0 0 0 0 0 
0 0 4.24349e-09 1.97846e-10 6.67886e-07 0 0 1.58618e-09 0 
0 0 0 0 0 0 0 0 0 
0 0 0 0 1.10994e-09 0 0 2.54664e-09 0 
0 0 0 0 0 4.21724e-10 0 0 0 
0 9.16726e-10 0 0 5.53827e-09 0 6.26189e-09 0 0 
4.64529e-09 6.26347e-10 0 0 0 0 0 0 0 
2.87687e-10 3.55616e-10 2.07541e-09 0 6.48107e-07 4.28074e-09 0 0 3.11111e-09 
0 1.95651e-09 0 0 0 0 0 0 0 
0 0 0 0 0 0 0 0 0 
0 0 0 0 0 0 0 0 0 
0 0 0 0 0 0 0 0 0 
0 0 0 0 0 0 0 0 0 
0 0 0 9.74441e-10 3.22393e-09 0 0 2.40909e-09 0 
2.36771e-09 0 0 0 0 0 3.01205e-09 6.41549e-07 0 
4.6748e-09 0 0 0 0 0 0 0 0 
6.42823e-07 4.8345e-09 0 1.65823e-09 0 0 0 0 0 
9.25481e-09 6.58076e-07 0 2.52149e-09 0 0 0 0 0 
0 0 1.05448e-09 0 0 1.49467e-09 0 0 0 
0 0 8.49837e-07 0 0 0 0 0 0 
0 0 0 0 0 0 0 0 0 
0 0 0 0 0 0 0 0 0 
0 0 0 0 0 0 0 0 0 
0 0 0 0 0 0 4.80361e-09 0 0 
1.61979e-09 3.13949e-10 0 0 6.03736e-10 0 6.65466e-07 0 3.92705e-09 
0 0 0 0 0 0 2.14207e-09 6.57001e-10 0 
0 0 0 0 1.94114e-10 0 0 0 0 
0 0 1.94314e-09 0 0 0 0 0 0 
0 0 1.86283e-09 2.67718e-09 0 0 0 0 0 
0 0 0 0 0 0 0 0 1.31412e-09 
9.34976e-10 2.69984e-09 0 8.49609e-07 5.41102e-09 0 0 0 0 
0 0 0 0 0 0 0 0 0 
0 0 0 0 0 0 0 0 0 
0 0 0 0 0 0 0 0 1.22335e-09 
0 2.14168e-09 0 0 0 0 6.88913e-07 2.67838e-09 0 
1.09171e-09 1.36163e-09 0 0 0 0 0 0 0 
0 0 0 8.06044e-07 1.05942e-09 0 0 0 0 
0 6.20577e-10 0 0 0 0 0 4.62456e-10 0 
2.38952e-09 0 0 0 0 0 0 0 0 
1.22982e-09 0 0 0 0 0 0 0 0 
0 0 0 0 0 0 0 0 0 
0 0 0 0 0 0 1.38565e-09 6.50242e-10 0 
0 0 0 0 0 0 0 0 0 
0 0 0 0 0 0 0 0 0 
0 0 0 0 0 0 3.55956e-09 1.34504e-09 0 
0 0 0 2.99863e-09 0 0 0 0 3.2827e-09 
0 0 0 0 0 0 0 0 0 
0 0 7.28743e-07 0 2.75737e-09 7.80231e-07 9.47736e-09 0 0 
1.75664e-09 1.1006e-09 0 0 0 0 0 0 0 
0 0 0 0 0 0 0 0 0 
0 0 0 0 0 0 0 0 0 
0 0 0 0 0 0 0 0 0 
0 0 0 0 0 0 2.1205e-09 2.53514e-09 0 
0 0 0 0 0 0 0 0 0 
0 0 0 0 0 0 0 0 0 
0 0 0 0 0 0 0 6.43323e-07 0 
0 0 0 0 8.73278e-07 3.98791e-09 0 0 0 
0 0 0 0 0 0 0 6.55424e-07 1.8864e-09 
0 0 3.49126e-09 7.80829e-09 0 0 0 0 3.82495e-09 
0 0 0 0 0 0 0 6.63951e-10 0 
0 0 0 0 8.79824e-10 0 0 0 0 
0 0 0 0 0 0 0 0 0 
0 0 0 0 0 0 0 0 0 
0 0 0 0 0 0 2.94177e-10 7.4675e-10 0 
0 0 0 0 0 0 0 0 0 
0 0 0 0 0 0 0 0 0 
0 0 0 0 0 0 0 0 4.31242e-09 
3.5335e-09 0 0 0 7.82531e-07 0 0 3.20083e-09 0 