# vtk DataFile Version 5.1
vtk output
ASCII
DATASET STRUCTURED_POINTS
DIMENSIONS 100 100 1
SPACING 1 1 1
ORIGIN 0 0 0
POINT_DATA 10000
FIELD FieldData 6
feature_1 1 10000 float
0 0 0 0 0 0 0 0 0 
0 0 0 0 0 0 0 0 0 
0 0 0 0 0 0 0 0 0 
0 0 0 0 0 0 0 0 0 
0 0 0 0 0 0 0 0 0 
0 0 0 0 0 0 0 0 0 
0 0 0 0 0 0 0 0 0 
0 0 0 0 0 0 0 0 0 
0 0 0 0 0 0 0 0 0 
0 0 0 0 0 0 0 0 0 
0 0 0 0 0 0 0 0 0 
0 0 0 0 0 0 0 0 0 
0 0 0 0 0 0 0 0 0 
0 0 0 0 0 0 0 0 0 
0 0 0 0 0 0 0 0 0 
0 0 0 0 0 0 0 0 0 
0 0 0 0 0 0 0 0 0 
0 0 0 0 0 0 0 0 0 
0 0 0 0 0 0 0 0 0 
0 0 0 0 0 0 0 0 0 
0 0 0 0 0 0 0 0 0 
0 0 0 0 0 0 0 0 0 
0 0 0 0 0 0 0 0 0 
0 0 0 0 0 0 0 0 0 
0 0 0 0 0 0 0 0 0 
0 0 0 0 0 0 0 0 0 
0 0 0 0 0 0 0 0 0 
0 0 0 0 0 0 0 0 0 
0 0 0 0 0 0 0 0 0 
0 0 0 0 0 0 0 0 0 
0 0 0 0 0 0 0 0 0 
0 0 0 0 0 0 0 0 0 
0 0 0 0 0 0 0 0 0 
0 0 0 0 0 0 0 0 0 
0 0 0 0 0 0 0 0 0 
0 0 0 0 0 0 0 0 0 
0 0 0 0 0 0 0 0 0 
0 0 0 0 0 0 0 0 0 
0 0 0 0 0 0 0 0 0 
0 0 0 0 0 0 0 0 0 
0 0 0 0 0 0 0 0 0 
0 0 0 0 0 0 0 0 0 
0 0 0 0 0 0 0 0 0 
0 0 0 0 0 0 0 0 0 
0 0 0 0 0 0 0 0 0 
0 0 0 0 0 0 0 0 0 
0 0 0 0 0 0 0 0 0 
0 0 0 0 0 0 0 0 0 
0 0 0 0 0 0 0 0 0 
0 0 0 0 0 0 0 0 0 
0 0 0 0 0 0 0 0 0 
0 0 0 0 0 0 0 0 0 
0 0 0 0 0 0 0 0 0 
0 0 0 0 0 0 0 0 0 
0 0 0 0 0 0 0 0 0 
0 0 0 0 0 0 0 0 0 
0 0 0 0 0 0 0 0 0 
0 0 0 0 0 0 0 0 0 
0 0 0 0 0 0 0 0 0 
0 0 0 0 0 0 0 0 0 
0 0 0 0 0 0 0 1.30657e-11 0 
0 0 0 0 0 0 0 0 0 
0 0 0 0 0 0 0 0 0 
0 0 0 0 0 0 0 0 0 
0 0 0 0 0 0 0 0 0 
0 0 0 0 0 0 0 0 0 
0 0 0 0 0 0 0 0 0 
0 0 0 0 0 0 0 0 0 
0 0 0 0 0 0 0 0 0 
0 0 0 0 0 0 0 0 0 
0 0 0 0 0 0 0 0 0 
0 0 0 0 0 0 0 0 0 
0 0 0 0 0 0 0 0 0 
0 0 0 0 0 0 0 0 0 
0 0 0 0 0 0 0 0 0 
0 0 0 0 0 0 0 0 0 
0 0 0 0 0 0 0 0 0 
0 0 0 0 0 0 0 0 0 
0 0 0 0 0 0 0 0 0 
0 0 0 0 0 0 0 0 0 
0 0 0 0 0 0 0 0 0 
0 0 0 0 0 0 0 0 0 
0 0 0 0 0 0 0 0 0 
0 0 0 0 0 0 0 0 0 
0 0 0 0 0 0 0 0 0 
0 0 0 0 0 0 0 0 0 
0 0 0 0 0 0 0 0 0 
0 0 0 0 0 0 0 0 0 
0 0 0 0 0 0 0 0 0 
0 0 0 0 0 0 0 0 0 
0 0 0 0 0 0 0 0 0 
0 0 0 0 0 0 0 0 0 
0 0 0 0 0 0 0 0 0 
0 0 0 0 0 0 0 0 0 
0 0 0 0 0 0 0 0 0 
0 0 0 0 0 0 0 0 0 
0 0 0 0 0 0 0 0 0 
0 0 0 0 0 0 0 0 0 
0 0 0 0 0 0 0 0 0 
0 0 0 0 0 0 0 0 0 
0 0 0 0 0 0 0 0 0 
0 0 0 0 0 0 0 0 0 
0 0 0 0 0 0 0 0 0 
0 0 0 0 0 0 0 0 0 
0 0 0 0 0 0 0 0 0 
0 0 0 0 0 0 0 0 0 
0 0 0 0 0 0 0 0 0 
0 0 0 0 0 0 0 0 0 
0 0 0 0 0 0 0 0 0 
0 0 0 0 0 0 0 0 0 
0 0 0 0 0 0 0 0 0 
0 0 0 0 0 0 0 0 0 
0 0 0 2.70839e-12 0 0 0 0 0 
0 0 0 0 0 0 0 0 0 
0 0 0 0 0 0 0 0 0 
0 0 0 0 0 0 0 0 0 
0 1.66711e-09 0 0 0 0 0 0 0 
0 0 0 0 0 0 0 2.35194e-09 3.9221e-10 
0 0 0 0 0 0 0 0 0 
0 0 0 0 0 0 0 0 0 
0 0 0 0 0 0 0 0 0 
0 0 0 0 0 0 0 0 0 
0 0 0 0 0 0 0 0 0 
0 0 0 0 0 0 0 0 0 
0 0 0 0 0 0 0 0 0 
0 0 0 0 0 0 0 0 0 
0 0 0 0 0 0 0 0 1.08658e-09 
0 0 0 0 0 0 0 0 0 
0 0 0 0 0 0 0 0 0 
0 0 0 0 0 0 0 0 0 
0 0 0 0 0 0 0 0 0 
0 0 0 0 0 0 0 0 0 
0 0 0 0 0 0 0 0 0 
0 0 0 0 0 0 0 0 0 
0 0 0 0 0 0 0 0 0 
0 0 0 0 0 0 0 0 0 
0 0 0 0 0 0 0 0 0 
0 0 0 0 0 0 0 0 0 
0 0 0 7.92628e-07 5.99443e-09 2.46384e-09 0 1.05449e-09 0 
0 0 0 0 0 0 1.99799e-09 1.16872e-09 6.44926e-07 
1.66313e-09 0 0 0 0 0 0 0 0 
0 0 0 0 0 0 0 0 0 
0 0 0 0 0 0 0 0 0 
0 0 0 0 0 0 0 0 0 
0 0 0 0 0 0 0 0 0 
0 0 0 0 0 0 0 0 0 
0 0 0 0 0 0 0 0 0 
0 0 0 0 4.99987e-10 0 0 0 0 
0 0 0 1.36899e-09 0 0 0 0 0 
3.10232e-09 0 0 8.33447e-07 0 6.49937e-09 0 0 0 
7.9437e-10 0 0 0 0 0 0 0 0 
0 0 1.71809e-09 1.25189e-09 8.32997e-10 0 0 0 0 
0 0 0 0 0 0 0 0 0 
0 1.72554e-09 0 0 0 0 0 0 0 
0 0 0 0 0 0 0 0 0 
0 0 0 0 0 0 0 0 0 
0 0 0 0 0 0 0 0 0 
0 0 0 0 0 0 0 0 0 
0 0 0 0 4.50611e-09 6.46889e-07 0 0 0 
0 0 0 1.74316e-09 0 7.57728e-09 0 0 1.28605e-09 
0 0 0 0 0 0 0 0 1.48277e-09 
0 0 0 0 0 0 0 0 0 
0 0 0 0 0 0 0 0 0 
0 0 0 0 0 0 1.12205e-09 0 0 
6.46237e-07 1.37489e-09 0 8.48166e-10 0 0 0 0 0 
0 0 0 0 0 0 0 0 0 
0 0 0 0 0 0 0 0 0 
0 0 0 0 0 0 0 0 0 
0 0 0 0 0 0 0 0 0 
0 0 0 0 0 0 0 0 0 
0 0 0 0 9.76927e-10 3.80029e-09 0 4.42807e-09 2.68245e-09 
0 0 0 0 0 0 7.98641e-07 0 0 
8.75498e-10 0 0 0 0 0 0 0 0 
0 0 1.38367e-09 0 0 0 0 0 0 
0 0 0 0 9.75096e-10 0 0 0 0 
0 1.73445e-11 0 0 4.13456e-10 0 0 0 0 
0 0 0 0 0 0 0 0 0 
0 0 0 0 0 0 0 0 0 
0 0 0 0 0 0 0 0 0 
0 0 0 0 0 0 0 0 0 
0 0 0 0 0 0 1.90579e-09 0 0 
7.72175e-10 0 0 3.98105e-10 0 0 2.4051e-09 0 0 
0 0 8.55532e-10 0 0 7.41793e-07 1.19514e-08 0 0 
0 0 6.89616e-07 0 8.22689e-10 9.48213e-10 0 0 0 
0 0 0 0 1.49455e-09 0 1.91348e-09 0 1.50933e-09 
0 2.12437e-09 0 0 0 0 0 0 0 
0 0 0 4.47007e-10 0 0 0 0 0 
0 0 0 0 0 0 0 0 0 
0 0 0 0 0 0 0 0 0 
0 0 0 0 0 0 0 0 0 
0 0 0 0 0 0 0 0 0 
0 0 0 0 0 0 1.24569e-09 5.09848e-09 0 
2.02162e-09 0 0 0 0 0 0 0 2.03103e-09 
1.68375e-09 0 0 0 1.2593e-09 1.74781e-09 0 0 2.15212e-09 
0 0 0 0 0 0 6.84216e-10 0 0 
0 0 0 0 0 0 0 7.19026e-07 0 
7.19145e-07 7.94563e-09 0 0 0 0 0 0 6.67386e-07 
0 0 0 0 0 0 0 0 0 
0 0 0 0 0 0 0 0 0 
0 0 0 0 0 0 0 0 0 
0 0 0 0 0 0 0 0 0 
0 0 0 0 0 0 0 0 0 
0 0 0 0 0 3.52821e-09 0 1.41478e-09 0 
0 0 0 0 0 0 0 0 1.71351e-09 
0 0 0 0 0 0 0 0 0 
0 0 0 0 0 0 1.704e-09 0 0 
0 0 0 0 0 0 0 0 0 
0 0 2.19891e-09 0 0 0 0 1.06617e-09 0 
0 0 2.05618e-09 2.04487e-09 1.31042e-09 0 0 0 0 
0 0 0 0 0 0 0 0 0 
0 0 0 0 0 0 0 0 0 
0 0 0 0 0 0 0 0 0 
0 0 0 0 0 0 0 0 0 
0 0 0 0 0 0 0 1.77314e-09 1.64008e-09 
3.84048e-09 6.4959e-07 0 0 0 0 0 0 0 
0 0 0 0 6.5007e-07 0 0 0 0 
0 8.98441e-07 9.15231e-07 0 1.87537e-09 7.20341e-07 0 0 0 
0 0 0 0 0 0 0 1.84058e-09 0 
0 1.54656e-09 0 0 0 1.42397e-09 0 1.66194e-09 0 
1.92671e-09 0 7.90583e-10 1.31563e-09 1.14659e-09 0 0 0 0 
0 0 0 0 0 0 0 0 0 
0 0 0 0 0 0 0 0 0 
0 0 0 0 0 0 0 0 0 
0 0 0 0 0 0 0 0 0 
0 0 0 6.39334e-10 1.83365e-09 4.24142e-09 6.46961e-07 5.40892e-09 0 
0 2.67221e-09 3.52093e-09 0 0 0 0 0 2.95287e-11 
0 0 0 0 0 0 0 0 1.5281e-09 
0 0 0 0 0 0 1.66803e-09 0 1.12164e-09 
0 0 1.15604e-09 0 0 0 0 0 0 
0 0 0 0 0 0 1.80889e-10 0 0 
0 6.68496e-07 1.04582e-09 0 0 0 0 0 0 
0 0 0 0 0 0 0 1.59522e-09 0 
0 0 0 0 0 0 0 0 0 
0 0 0 0 0 0 0 0 0 
0 0 0 0 0 0 0 0 0 
0 0 0 0 0 1.07315e-09 0 0 5.02214e-09 
2.03748e-09 0 1.50768e-09 0 1.61795e-09 0 0 0 0 
0 7.66628e-10 0 0 0 0 0 0 0 
1.42307e-09 0 0 0 0 0 0 2.98103e-09 0 
1.40994e-09 0 0 0 0 0 0 0 0 
0 0 5.70648e-10 0 0 1.74848e-09 6.51782e-11 0 0 
0 0 0 0 6.45046e-10 0 0 0 1.846e-09 
0 0 0 0 0 0 1.29377e-09 5.00967e-09 0 
0 0 0 0 0 0 0 0 0 
0 0 0 0 0 0 0 0 0 
0 0 0 0 0 0 0 0 0 
0 0 0 0 0 0 0 0 0 
0 0 0 0 0 0 0 0 0 
0 0 0 0 0 0 0 0 0 
0 0 0 0 0 1.90233e-09 0 0 3.34305e-10 
0 4.14137e-10 0 0 0 0 0 0 0 
0 0 0 0 0 0 0 4.37765e-09 0 
0 0 0 0 0 1.64077e-09 0 0 0 
0 0 0 0 0 0 0 0 0 
7.18966e-07 0 1.82318e-09 1.53031e-09 0 0 0 0 0 
0 0 0 0 0 0 0 0 0 
0 0 0 0 0 0 0 0 0 
0 0 0 0 0 1.41161e-09 0 0 0 
0 0 0 0 0 0 0 1.61918e-09 0 
0 0 7.51904e-10 3.06786e-10 0 0 8.14201e-10 0 0 
2.08102e-10 0 0 0 1.65468e-09 0 0 8.76562e-07 8.73947e-07 
0 0 0 0 0 0 0 0 5.88197e-10 
0 0 0 0 0 0 0 0 6.46621e-07 
0 0 0 3.33155e-10 0 0 0 0 0 
0 6.5498e-07 0 0 0 0 0 0 2.85708e-09 
5.75527e-09 0 0 0 0 0 0 0 0 
0 0 0 0 0 0 0 0 0 
0 0 0 0 0 0 0 0 0 
6.54397e-10 0 0 0 0 0 0 1.11097e-09 0 
0 0 0 0 0 0 0 0 0 
1.17728e-09 0 0 0 0 7.36313e-10 0 0 0 
0 0 0 0 0 1.74325e-09 0 0 3.37882e-09 
0 0 2.06696e-09 1.20432e-10 0 0 6.45922e-07 1.8113e-09 0 
9.22055e-10 0 0 0 0 0 0 2.77346e-09 0 
0 0 0 0 0 0 4.67243e-09 0 0 
0 0 1.38244e-09 2.65686e-10 3.85266e-09 0 1.16716e-09 0 1.10845e-09 
1.51048e-09 0 7.25675e-07 0 0 0 0 0 0 
0 0 0 0 0 0 0 0 0 
0 0 0 0 0 0 0 0 0 
0 0 0 1.00315e-09 1.18551e-09 2.28172e-10 0 0 0 
0 0 0 0 0 0 0 0 0 
0 0 2.99169e-09 0 9.16797e-10 0 9.37184e-10 1.68567e-10 0 
0 0 0 0 0 0 0 1.9901e-09 0 
4.37143e-09 0 0 0 2.46153e-09 0 0 2.64294e-09 8.61196e-10 
0 0 1.20898e-09 0 0 0 0 6.12485e-10 0 
0 0 1.51299e-09 1.00464e-09 0 0 8.93094e-09 6.5467e-07 4.66128e-09 
0 0 0 0 0 0 0 5.44929e-10 0 
0 0 3.82448e-09 0 0 4.25012e-10 0 0 0 
0 0 0 0 0 0 0 0 0 
0 0 0 0 0 0 0 0 0 
0 0 0 0 0 0 0 0 0 
7.18648e-07 0 0 0 0 0 0 0 0 
0 0 4.2462e-09 6.47105e-07 0 0 1.65531e-09 3.79145e-09 6.98882e-07 
0 2.42638e-09 1.6119e-09 0 0 0 0 1.23096e-09 0 
0 0 0 0 1.42729e-09 0 0 0 0 
0 0 0 0 0 0 0 0 6.61964e-10 
0 0 1.15324e-09 0 1.85807e-09 0 0 0 3.07398e-09 
0 0 2.94854e-09 0 0 0 0 1.14046e-09 0 
0 0 0 2.82629e-09 0 0 2.56661e-09 0 0 
0 0 0 0 0 0 0 0 0 
0 0 0 0 0 0 0 0 0 
0 0 0 6.59857e-07 0 0 0 0 7.75606e-07 
0 0 0 0 0 0 0 0 0 
0 0 0 0 0 0 0 0 0 
0 0 7.06208e-07 0 0 3.9527e-09 0 0 0 
0 9.05198e-10 2.84083e-09 2.93494e-11 0 7.16207e-10 0 0 0 
1.23046e-09 0 0 0 0 0 0 0 0 
0 1.10187e-09 0 0 0 0 0 0 0 
0 0 0 0 0 6.56296e-07 0 0 1.39067e-09 
0 4.68485e-10 0 0 5.85393e-10 9.12142e-10 0 1.52709e-09 0 
0 0 0 0 0 0 0 0 0 
0 0 0 0 0 0 0 0 0 
0 0 1.50038e-09 4.13254e-09 0 0 0 0 0 
0 0 3.51351e-09 2.26403e-09 0 0 1.15865e-09 0 0 
0 0 0 0 1.11338e-09 0 0 0 0 
1.61482e-09 0 0 0 0 0 2.2955e-09 6.03425e-09 3.64854e-09 
0 5.97023e-09 7.04251e-07 0 0 2.28253e-10 0 0 0 
0 0 0 0 3.84168e-09 2.93838e-09 4.73356e-09 1.65784e-09 0 
0 0 4.70925e-10 0 0 0 1.96123e-09 0 0 
0 0 2.56258e-09 0 0 0 0 0 0 
0 0 0 0 0 6.73315e-07 0 0 0 
1.87602e-10 0 0 0 0 0 0 0 0 
0 0 0 0 0 0 0 0 0 
0 0 0 0 0 0 1.34959e-09 0 7.11434e-07 
9.16446e-09 1.16132e-09 7.43743e-07 4.78546e-09 2.57305e-09 0 0 0 0 
0 7.34471e-10 0 0 0 0 0 0 0 
0 1.19101e-09 1.38316e-09 0 0 0 0 0 0 
0 0 0 7.23992e-09 0 0 0 0 0 
0 0 0 0 1.30134e-09 0 6.59236e-07 4.65157e-09 2.44462e-09 
0 0 0 0 0 0 6.503e-07 2.25991e-09 1.7447e-09 
0 0 6.80377e-09 3.5584e-09 2.65081e-09 0 0 0 8.72856e-10 
0 0 0 0 0 0 0 0 0 
0 0 0 0 0 0 0 0 0 
0 0 0 0 0 0 0 0 0 
0 0 0 0 0 0 2.10196e-09 2.17643e-09 0 
0 0 0 0 0 5.68254e-10 1.38387e-09 0 2.8583e-09 
0 0 2.82549e-09 1.58025e-09 0 0 0 0 0 
0 0 4.12123e-10 0 0 0 0 0 0 
7.02426e-07 0 0 7.23958e-07 4.73676e-09 0 0 0 0 
0 0 0 0 0 0 0 2.68387e-09 0 
0 0 0 1.69855e-09 1.42344e-09 0 4.5262e-09 0 3.62002e-09 
0 0 4.17225e-09 6.50617e-07 0 0 1.15235e-09 0 1.15001e-09 
0 0 0 0 2.00957e-09 0 0 0 0 
0 0 5.24754e-10 0 0 0 0 0 0 
0 0 0 0 0 0 0 0 0 
0 0 0 0 0 0 0 0 5.39084e-10 
0 0 0 0 0 0 2.0694e-09 3.28094e-09 0 
0 8.71906e-07 0 0 0 0 0 0 0 
0 0 0 0 0 0 0 7.20987e-07 0 
5.61053e-09 0 0 0 0 0 0 0 0 
0 0 0 2.03467e-10 1.60117e-09 2.45735e-09 2.09812e-09 3.7696e-09 0 
0 0 0 0 0 0 0 0 0 
0 0 0 0 0 0 0 2.47914e-11 0 
0 0 0 0 0 0 0 6.7613e-07 4.58077e-09 
0 0 0 0 0 0 0 0 0 
0 0 0 0 0 0 0 0 0 
0 0 0 0 0 0 0 0 1.9296e-10 
0 1.32216e-09 1.18286e-09 0 1.61469e-09 0 0 1.80772e-10 0 
3.88436e-09 0 8.85228e-07 0 0 0 0 0 0 
0 0 0 0 0 2.74649e-09 0 5.66825e-09 0 
0 0 3.34755e-09 2.88255e-09 0 0 0 0 1.38328e-09 
0 0 0 0 0 0 0 5.20675e-07 6.22547e-10 
0 3.31149e-09 0 0 0 0 2.46171e-09 3.5009e-09 0 
0 0 1.29444e-09 1.83185e-09 0 0 0 0 0 
0 0 0 0 0 0 1.95432e-09 0 0 
0 0 0 0 0 0 0 0 0 
0 0 0 0 0 0 0 0 5.00246e-11 
0 0 0 0 0 0 0 0 0 
0 0 0 0 0 0 8.51362e-10 0 0 
0 0 0 0 0 5.64746e-09 6.84752e-07 4.58519e-09 0 
0 0 0 0 8.01143e-10 0 0 0 0 
0 0 0 0 0 0 0 0 0 
0 0 0 0 0 0 0 0 5.60408e-09 
0 0 0 0 7.4854e-07 0 8.04877e-07 0 0 
0 0 0 0 0 0 0 0 0 
0 0 0 0 0 3.71306e-09 6.55868e-07 0 0 
0 0 0 0 0 0 0 0 0 
0 0 0 0 0 0 0 0 0 
0 0 0 0 0 0 0 0 0 
0 0 0 0 0 0 0 0 0 
2.39653e-09 1.44943e-09 0 0 0 0 1.56838e-09 4.43582e-09 7.17252e-10 
0 1.77134e-09 0 0 0 0 0 0 0 
8.99418e-07 9.13615e-07 0 4.1379e-09 3.46581e-10 6.98777e-11 0 0 4.56875e-09 
0 0 0 0 0 0 0 0 0 
7.66757e-10 1.33345e-09 1.93997e-09 0 0 0 0 3.63912e-09 0 
1.86393e-09 0 0 0 0 9.93352e-10 8.20166e-10 0 0 
0 0 0 0 0 0 2.18671e-09 2.38439e-09 0 
2.68339e-09 0 0 0 0 0 0 0 0 
0 0 0 0 0 0 0 0 0 
0 0 0 0 0 0 0 0 0 
0 0 0 0 0 0 0 0 0 
0 0 0 2.49664e-09 0 0 0 0 0 
0 8.46324e-10 0 0 0 0 0 0 2.99034e-09 
0 0 0 0 4.31646e-09 0 0 0 3.51334e-09 
0 0 2.11968e-09 0 3.82642e-09 0 0 0 0 
0 2.72004e-09 0 0 0 0 0 0 3.42048e-09 
8.77632e-07 0 0 7.35655e-07 0 1.33549e-09 1.58352e-09 0 0 
0 0 0 0 0 0 0 0 0 
0 0 0 0 0 0 0 0 0 
0 0 0 0 0 0 0 0 0 
0 0 0 0 0 0 0 0 0 
0 0 0 0 0 0 0 0 0 
0 0 0 3.66169e-09 7.14317e-07 0 9.13757e-09 0 0 
4.19607e-09 3.39306e-09 0 2.12927e-09 0 0 0 0 9.2716e-10 
0 0 0 0 0 0 0 0 0 
0 7.62117e-07 0 0 0 6.58958e-07 0 1.08541e-09 6.86553e-10 
0 8.73141e-10 0 0 1.67072e-09 0 0 0 0 
8.32007e-07 0 0 0 2.85605e-09 0 0 0 0 
0 0 0 0 9.85697e-11 0 0 0 0 
0 0 0 6.7401e-10 4.18564e-10 0 0 0 0 
0 0 0 0 0 0 0 0 0 
0 0 0 0 0 0 0 0 0 
0 0 0 0 0 0 0 0 0 
0 0 7.6666e-10 0 0 0 0 7.79111e-07 4.56339e-09 
0 0 0 6.54231e-07 0 0 1.58978e-09 4.32151e-10 0 
0 1.97174e-09 0 0 7.1253e-07 0 0 0 0 
0 0 1.01285e-08 0 0 0 4.29071e-09 0 1.44081e-09 
0 0 0 0 0 0 6.52534e-10 0 0 
0 0 1.13497e-09 0 7.48279e-07 7.03052e-09 0 0 0 
0 0 0 0 0 0 0 0 0 
0 0 0 0 0 0 0 0 0 
0 0 0 0 0 0 0 0 0 
0 0 0 0 0 0 0 0 0 
0 0 0 0 0 0 0 0 0 
0 0 0 0 0 0 0 0 5.41281e-09 
3.50536e-09 0 0 3.89195e-09 4.6398e-09 0 1.62526e-09 0 0 
0 0 0 0 0 0 0 1.04208e-09 8.39766e-09 
0 8.81091e-07 0 8.21374e-07 2.44688e-09 4.00699e-09 0 0 3.7008e-09 
0 0 0 0 0 0 0 0 0 
0 0 2.30922e-09 0 0 0 0 0 0 
5.52876e-10 0 0 0 0 0 0 0 0 
0 0 0 0 0 0 0 0 0 
0 0 0 0 0 0 0 0 0 
0 0 0 0 0 0 0 0 0 
0 0 0 0 0 0 7.21004e-10 0 0 
0 0 0 0 0 0 1.80776e-09 2.50513e-09 1.02838e-08 
7.33252e-07 0 0 1.39242e-09 0 0 0 1.32162e-09 0 
0 0 0 0 0 0 0 9.04703e-09 0 
0 8.59887e-07 0 0 0 0 0 0 0 
0 0 0 0 0 6.67515e-07 0 3.5073e-09 0 
0 1.6095e-09 0 0 4.24737e-09 0 0 0 0 
0 0 0 0 0 0 0 0 0 
0 0 6.4437e-10 0 0 0 0 0 0 
0 0 0 0 0 0 0 0 0 
0 0 0 0 0 0 0 0 0 
0 0 0 0 0 0 0 6.44214e-07 0 
0 0 0 0 0 0 0 0 0 
0 0 2.0837e-09 0 2.13496e-09 0 2.35273e-09 1.49929e-09 0 
0 0 0 7.52552e-10 0 0 0 0 0 
7.54899e-07 0 0 0 0 0 0 0 0 
0 0 0 1.27782e-09 0 0 5.09318e-09 0 3.12644e-09 
0 0 0 0 0 0 2.40592e-09 0 1.01318e-09 
1.19398e-09 0 0 0 0 0 0 0 0 
0 0 0 0 0 0 0 0 0 
5.67433e-10 0 0 0 0 0 0 0 0 
0 0 0 0 0 0 0 0 0 
0 0 0 0 0 0 2.35547e-09 2.01936e-09 0 
0 0 0 0 0 0 0 0 0 
0 3.06369e-09 0 0 0 0 0 0 0 
0 0 0 0 5.51508e-10 0 0 3.07753e-09 0 
0 0 0 0 0 0 5.48184e-10 9.72705e-10 0 
0 0 0 0 0 0 0 0 0 
4.65696e-09 0 0 8.46228e-07 0 8.42027e-07 9.00941e-09 0 6.99238e-10 
0 0 0 0 0 0 0 0 0 
0 0 0 0 3.5771e-09 0 0 0 0 
2.24628e-09 9.90883e-10 0 0 0 0 0 0 0 
0 0 0 0 0 0 0 0 0 
0 0 0 0 0 0 0 0 0 
0 0 0 0 1.44379e-09 3.0687e-09 0 0 0 
0 0 0 0 0 0 0 0 0 
0 0 0 0 2.15493e-10 0 0 0 0 
1.63391e-09 0 5.16066e-09 0 0 3.97657e-09 0 0 0 
0 0 0 0 6.04241e-10 0 0 0 0 
6.76089e-07 3.05151e-09 0 0 0 8.80347e-07 0 3.72294e-09 2.75133e-09 
0 0 2.82911e-10 0 0 0 0 0 0 
2.84045e-10 0 1.37986e-09 0 4.2984e-09 0 0 0 7.17234e-07 
2.1665e-09 0 0 0 0 0 0 0 0 
0 0 0 0 0 0 0 0 0 
0 0 0 0 0 0 1.06632e-10 0 0 
0 0 7.59042e-10 0 0 0 0 6.44171e-07 0 
0 1.38299e-09 0 0 0 0 0 0 0 
0 0 0 0 6.48392e-07 0 0 0 0 
0 0 0 0 9.07152e-07 8.93502e-07 0 0 0 
0 0 0 0 0 0 0 0 0 
2.64071e-09 8.80466e-09 0 0 0 1.4477e-09 0 0 1.73124e-09 
0 0 0 4.18427e-10 0 0 0 0 0 
1.55811e-09 0 0 0 0 1.22488e-08 7.00048e-07 0 0 
0 0 0 0 0 0 0 0 0 
0 0 0 0 0 0 0 0 0 
0 0 0 0 0 0 0 0 0 
0 0 0 0 0 0 0 1.45294e-09 1.73158e-09 
0 0 0 0 0 0 0 0 0 
2.1712e-10 0 0 0 2.90907e-09 0 0 2.37709e-09 0 
0 0 0 0 0 1.13497e-08 0 0 0 
0 0 0 0 0 0 0 0 0 
0 0 0 0 0 0 0 0 6.84528e-11 
0 0 0 0 0 0 0 0 0 
0 0 1.72073e-09 0 0 0 0 2.04659e-09 0 
5.07934e-09 0 7.11557e-07 0 0 0 0 0 0 
0 0 0 0 0 0 0 0 0 
0 0 0 0 0 0 0 0 0 
2.84255e-10 4.94615e-10 0 0 8.04968e-10 0 0 0 0 
1.26647e-09 0 0 0 0 0 0 0 0 
0 0 0 0 0 2.51194e-09 0 0 5.73895e-10 
0 0 0 0 1.01398e-09 0 0 0 3.5247e-09 
2.60193e-10 0 0 0 0 0 0 0 0 
0 0 0 0 0 0 1.76539e-09 0 2.97654e-09 
2.61843e-09 0 0 0 0 0 0 0 0 
0 0 0 0 0 0 6.87721e-07 1.13076e-09 1.4537e-09 
0 0 3.46125e-09 2.3132e-09 0 0 0 0 0 
0 0 0 0 0 0 0 0 0 
0 0 0 0 0 0 0 0 0 
0 0 0 0 0 0 0 0 0 
0 0 0 5.31398e-10 0 0 0 0 0 
0 0 0 9.15055e-10 0 0 0 2.02234e-09 1.36528e-09 
0 0 0 0 1.95017e-09 8.55373e-09 6.77691e-07 0 0 
1.48735e-09 0 9.32178e-10 0 0 0 0 0 0 
0 0 0 0 0 0 8.58099e-10 0 0 
0 0 0 0 0 0 3.97114e-09 3.1319e-09 0 
0 0 0 6.54452e-07 0 1.95813e-09 7.08199e-10 0 0 
3.54092e-09 0 0 0 0 2.46608e-09 0 0 0 
0 0 0 0 0 0 0 0 0 
0 0 0 0 0 0 0 0 0 
0 0 0 1.55211e-09 0 2.04453e-09 0 0 0 
1.18899e-09 0 0 0 0 0 0 0 0 
0 0 0 0 0 0 6.4816e-07 0 0 
0 0 0 0 0 0 0 0 3.39573e-09 
0 0 9.83291e-10 0 0 0 0 0 0 
0 0 0 0 0 0 0 0 0 
0 0 0 0 0 2.5137e-09 6.11581e-09 6.49502e-07 0 
0 0 0 0 8.39857e-09 3.82601e-09 0 0 0 
0 1.61577e-09 0 0 0 0 0 1.23459e-09 1.56416e-09 
0 4.97159e-10 0 0 0 0 0 0 0 
0 0 0 0 0 0 0 0 0 
0 0 0 0 0 8.67862e-10 6.44436e-07 4.52618e-09 3.56991e-09 
0 0 0 0 0 0 0 0 0 
0 0 0 0 0 9.83126e-10 1.79691e-09 0 0 
0 0 0 0 0 0 9.65112e-10 1.27329e-09 0 
2.66105e-09 0 0 0 0 0 0 6.77642e-07 0 
0 7.95104e-10 0 0 0 0 0 0 0 
0 0 0 0 4.2953e-09 0 0 2.86113e-09 0 
0 0 0 8.10818e-10 0 0 0 0 0 
0 0 0 3.72924e-09 0 0 0 6.60547e-07 0 
0 0 5.6961e-10 0 0 0 0 0 0 
0 0 0 0 0 0 0 0 0 
0 0 0 0 1.03943e-09 0 0 0 2.51986e-09 
0 0 0 0 0 0 0 0 0 
0 6.75284e-10 0 0 0 0 0 0 5.66377e-10 
0 8.6715e-10 0 0 0 0 0 0 3.09655e-10 
0 0 0 0 3.80635e-10 0 2.42219e-09 0 0 
0 0 0 0 0 0 0 0 0 
0 0 0 0 0 6.48599e-07 4.33898e-09 4.44805e-09 0 
0 0 0 0 0 1.03018e-09 0 0 0 
3.44204e-09 0 6.57189e-07 3.16875e-09 0 1.8864e-09 0 1.79962e-09 0 
0 0 0 0 0 0 0 0 0 
0 0 0 0 0 0 0 0 0 
0 0 0 0 0 0 0 0 0 
1.50029e-09 5.49699e-10 0 0 0 0 0 0 0 
0 0 0 0 6.38316e-10 0 0 0 0 
0 0 1.11062e-09 0 0 0 0 7.83067e-10 0 
0 0 0 1.45845e-09 0 0 0 9.6758e-10 3.88262e-09 
0 0 0 9.85898e-07 9.13952e-07 0 0 5.34736e-10 0 
0 0 0 0 0 0 0 0 0 
1.05304e-09 9.39682e-10 0 0 0 0 7.0009e-10 0 0 
0 0 0 0 0 0 0 0 0 
0 0 0 0 0 0 0 0 0 
0 0 0 0 0 0 0 0 0 
0 0 0 0 0 0 0 0 0 
1.28569e-09 0 0 0 0 0 0 0 0 
0 0 0 0 0 0 1.26706e-09 1.10058e-09 0 
0 0 0 0 0 0 0 4.76252e-10 0 
0 0 0 0 0 0 0 0 0 
0 0 0 8.31341e-07 0 0 6.75265e-09 0 0 
4.97908e-10 4.66296e-10 0 0 0 0 0 7.47797e-10 1.02289e-09 
0 0 0 0 0 0 0 0 0 
2.9612e-09 7.75349e-10 1.89243e-09 0 0 0 1.09232e-09 0 0 
0 0 1.84832e-09 0 0 0 0 0 0 
0 0 0 0 0 0 0 0 0 
0 0 0 0 0 0 0 0 6.44364e-10 
0 0 0 0 0 0 0 0 0 
0 0 0 0 0 0 1.95265e-09 0 0 
0 0 5.74459e-10 0 0 0 4.26766e-09 6.47291e-07 0 
0 0 0 0 1.68735e-09 0 0 0 0 
6.70655e-07 0 3.48488e-09 0 0 0 0 0 0 
0 0 0 0 0 0 0 0 0 
0 0 0 0 0 0 0 0 4.67523e-09 
6.66078e-07 0 0 1.42933e-09 1.27301e-09 0 0 0 0 
1.81956e-09 6.5697e-07 0 0 0 0 0 0 0 
0 0 0 0 0 0 0 0 0 
0 0 0 0 0 0 0 0 2.10898e-10 
0 0 0 5.91215e-09 0 0 0 0 0 
0 0 0 0 0 5.89772e-09 6.78828e-07 0 0 
0 0 0 1.23374e-09 0 0 0 3.46628e-09 0 
2.70285e-09 0 0 0 0 0 0 1.88558e-09 0 
0 6.21604e-09 0 0 0 0 0 3.51352e-09 4.6268e-10 
3.38336e-11 6.30958e-10 0 0 0 0 0 0 0 
0 0 0 0 0 0 0 0 0 
0 0 0 2.66077e-09 0 0 0 0 2.09475e-09 
0 1.1213e-08 0 0 0 0 0 0 0 
0 0 0 0 0 0 0 0 0 
0 0 0 0 0 0 0 0 0 
0 0 0 6.44081e-07 0 0 0 0 0 
0 0 0 0 6.79534e-07 0 0 0 5.51906e-09 
0 0 0 5.07233e-10 0 0 0 3.51674e-09 0 
1.88724e-09 2.13735e-09 0 0 0 0 1.11626e-09 1.14622e-09 6.56512e-07 
4.67462e-09 3.39565e-09 0 0 0 0 0 1.98509e-09 0 
0 0 0 0 0 0 8.46485e-10 0 0 
0 0 0 0 0 0 0 0 1.75056e-09 
0 0 0 0 0 2.11535e-09 0 0 5.18024e-09 
0 0 2.2694e-09 0 0 0 0 0 0 
0 0 0 0 0 0 0 0 0 
0 0 0 0 0 0 0 0 0 
0 0 0 0 2.10127e-09 0 0 0 1.1894e-09 
0 0 0 0 0 0 0 0 0 
0 2.00472e-09 0 1.62735e-09 0 0 3.78888e-09 0 0 
2.20806e-09 0 0 8.70595e-10 0 0 0 0 0 
1.07811e-09 2.47873e-09 1.20259e-09 0 0 0 0 0 0 
0 0 1.56029e-09 6.68084e-07 4.79686e-09 0 0 8.09572e-10 0 
0 0 0 0 0 0 0 0 0 
0 0 0 0 0 1.53501e-09 0 2.36685e-09 0 
6.52377e-07 0 0 0 2.17183e-09 1.21515e-09 0 0 0 
0 0 0 0 0 0 0 0 0 
0 0 0 0 0 0 0 0 0 
0 0 0 9.62604e-10 0 0 0 0 9.9924e-10 
0 0 0 2.77209e-09 0 0 0 0 1.94463e-09 
2.25008e-09 2.47167e-09 7.37947e-07 3.52945e-09 0 0 0 6.63271e-07 2.282e-09 
0 0 0 5.63791e-10 0 2.72917e-09 0 0 0 
9.0166e-10 2.01388e-09 0 2.15574e-10 0 0 0 0 0 
0 0 0 0 0 0 0 0 7.93761e-10 
0 0 0 0 0 0 0 0 0 
0 0 0 9.82985e-07 1.08415e-06 0 0 0 0 
0 0 0 0 0 0 0 0 0 
0 0 0 0 0 0 0 0 0 
0 0 0 0 0 0 0 0 0 
0 0 0 0 0 0 0 0 0 
0 6.76417e-10 0 0 0 7.08065e-07 2.13197e-09 0 1.81402e-09 
0 0 4.01689e-09 1.08473e-09 0 0 0 0 2.16202e-09 
2.1376e-09 0 0 0 0 6.71941e-07 2.00781e-09 1.16749e-09 1.56378e-09 
0 0 0 0 0 0 0 0 0 
6.73289e-10 0 0 0 0 0 3.92407e-09 0 6.05223e-10 
0 0 0 0 0 0 0 0 0 
0 0 0 0 0 9.49334e-07 0 0 4.03014e-09 
1.82529e-09 0 0 0 0 6.6106e-10 0 0 7.66617e-07 
0 0 1.48752e-09 1.07982e-11 0 0 0 0 0 
0 0 0 0 0 0 0 0 0 
0 0 0 0 0 0 0 0 0 
0 0 0 0 0 0 1.47067e-09 0 1.11467e-09 
0 0 0 0 7.43675e-07 0 2.1992e-09 0 3.05456e-09 
0 0 0 3.97051e-09 0 0 0 0 0 
2.11227e-09 0 6.86171e-11 0 0 0 0 0 0 
0 0 0 0 0 0 0 6.80431e-07 0 
0 1.83514e-09 2.64821e-10 0 0 0 0 0 0 
0 0 0 1.19897e-09 0 0 0 0 0 
2.29829e-09 3.56892e-09 0 0 0 0 0 0 0 
0 7.70156e-07 0 0 0 0 0 0 0 
0 0 0 0 0 0 0 0 0 
0 0 0 0 0 0 0 0 0 
0 0 0 0 0 6.50765e-09 6.95973e-07 3.287e-09 0 
4.09227e-09 0 0 1.93264e-09 0 0 0 0 1.65389e-09 
0 0 3.70853e-09 6.64486e-07 9.22101e-10 1.03546e-09 0 1.65349e-09 0 
0 0 1.28107e-09 0 1.77313e-09 0 1.00184e-09 0 0 
0 0 2.23044e-09 7.63282e-07 8.24375e-09 0 0 0 0 
1.88677e-09 0 7.65141e-09 0 7.91784e-10 0 0 9.99983e-10 1.15931e-09 
0 0 1.26057e-09 0 0 0 0 4.34044e-09 1.18376e-09 
0 6.68388e-07 3.82675e-09 1.89453e-09 0 1.05287e-09 0 0 0 
0 0 0 3.16362e-09 0 0 0 0 0 
0 0 0 0 0 0 0 0 0 
0 0 0 0 0 0 0 0 0 
0 0 0 0 0 0 3.00809e-09 0 0 
0 0 0 3.47712e-10 0 0 6.89047e-10 0 2.51579e-09 
0 0 0 0 0 1.02546e-08 0 1.74781e-09 0 
6.72053e-07 0 2.44429e-09 0 0 3.02815e-09 0 0 0 
0 0 0 0 0 7.66148e-07 0 1.60304e-09 0 
0 0 0 4.38908e-09 0 0 2.62882e-09 1.38755e-09 0 
0 3.5743e-10 0 0 0 0 0 0 0 
0 2.7581e-09 0 1.47403e-09 0 0 0 0 0 
0 0 0 0 2.77082e-09 0 0 0 0 
0 0 0 0 0 0 0 0 0 
0 0 0 0 0 0 0 0 0 
0 0 0 0 0 0 0 0 0 
0 1.43746e-09 0 0 0 0 0 0 6.74526e-07 
0 0 1.93607e-09 2.12679e-09 1.13764e-09 0 0 3.93652e-09 0 
0 0 0 0 0 0 6.62073e-07 0 0 
0 0 0 1.48301e-09 0 0 0 0 0 
0 0 0 0 0 9.63833e-07 1.68808e-09 0 0 
0 0 3.02488e-09 0 6.55643e-07 0 0 0 0 
0 1.86631e-09 2.77852e-09 0 0 0 0 0 0 
0 0 4.75642e-09 0 0 0 0 8.84863e-10 0 
0 0 0 0 0 0 0 0 0 
0 0 0 0 0 0 0 0 0 
0 0 0 0 0 0 0 0 0 
0 0 0 0 0 0 0 0 0 
0 0 0 0 0 0 0 0 0 
0 8.0069e-10 0 1.31494e-09 0 0 0 0 0 
1.66542e-09 1.05422e-09 0 0 0 0 1.99608e-09 0 0 
0 0 0 0 0 0 0 0 0 
0 0 0 0 0 4.21751e-09 2.66862e-09 0 0 
0 0 0 0 0 0 1.02311e-09 0 0 
3.3281e-09 0 0 5.17957e-09 8.2336e-07 0 0 0 0 
0 0 0 0 0 0 0 0 0 
0 0 0 0 0 0 0 0 0 
0 0 0 0 0 0 0 0 0 
0 1.0176e-09 0 0 0 0 0 4.67639e-10 0 
0 0 0 2.35718e-09 0 0 0 0 0 
0 0 1.73377e-09 0 0 3.49628e-09 2.73942e-09 0 2.49351e-09 
0 1.72684e-09 1.42498e-09 0 0 0 0 0 0 
0 0 0 0 0 0 0 1.00374e-06 9.76469e-09 
0 0 0 0 2.09159e-09 0 0 0 2.68932e-09 
0 5.45411e-10 0 2.48929e-09 0 0 0 0 0 
0 0 3.75551e-09 0 9.82947e-07 0 0 0 0 
0 0 0 0 0 0 0 0 0 
0 0 0 0 0 0 0 0 0 
0 0 0 0 0 0 0 0 1.73022e-09 
6.70473e-09 0 1.37229e-09 0 0 0 0 0 6.51313e-07 
4.2382e-09 0 0 1.8156e-09 0 0 2.15878e-09 0 5.99451e-10 
0 0 0 0 0 1.11878e-09 0 6.72117e-07 0 
0 0 0 0 0 0 0 0 0 
7.34899e-10 0 0 0 2.81729e-09 0 0 0 9.42513e-07 
0 0 0 0 7.48242e-07 0 0 2.79519e-11 0 
0 0 0 0 0 0 0 1.66674e-09 0 
0 6.77729e-07 1.41174e-09 0 0 9.19315e-07 0 0 0 
1.11552e-09 0 0 0 0 0 0 0 0 
0 0 0 0 0 0 0 0 0 
0 0 0 0 0 0 0 0 0 
0 0 0 6.29996e-10 2.21093e-10 0 1.40124e-09 0 0 
2.83259e-09 2.05566e-09 0 1.34183e-09 0 0 0 0 0 
0 0 0 0 0 0 0 0 9.17938e-10 
0 1.34271e-09 2.51955e-09 0 0 2.39892e-09 0 0 0 
1.16132e-09 0 0 1.99214e-09 0 1.02539e-09 1.47452e-09 0 0 
6.28736e-09 0 0 9.49919e-07 0 1.37297e-09 0 3.86157e-09 0 
0 4.34389e-09 0 1.88254e-09 3.60651e-09 0 6.65651e-07 0 0 
1.78341e-09 0 3.94499e-09 1.50064e-09 3.73333e-09 0 0 0 0 
0 0 4.81939e-10 0 0 0 0 0 0 
0 0 0 0 0 0 0 0 0 
0 0 0 0 0 0 0 0 0 
0 5.44453e-09 6.77236e-07 5.57509e-09 0 6.01635e-10 0 0 0 
0 0 3.08366e-09 0 0 0 7.06411e-10 1.1972e-09 6.52176e-07 
0 1.31842e-09 0 0 0 0 0 0 0 
0 0 6.99156e-09 7.38562e-07 0 3.46056e-09 0 1.75074e-09 0 
0 1.72482e-09 0 1.54509e-09 0 0 0 0 0 
0 0 1.28353e-09 0 9.14301e-07 0 0 4.20919e-09 0 
6.97545e-07 0 0 6.86674e-07 4.71403e-09 0 0 4.70032e-09 2.93843e-09 
0 2.26928e-09 3.7977e-09 0 0 0 0 0 0 
0 6.08536e-10 0 0 0 0 0 0 0 
0 0 0 0 0 0 0 0 0 
0 0 0 0 0 0 3.15367e-10 0 0 
0 0 0 0 0 0 0 0 0 
0 0 0 0 0 0 0 0 0 
1.03841e-09 0 0 0 4.37671e-10 0 0 0 0 
1.12773e-09 0 0 0 0 0 7.66954e-07 0 6.01952e-10 
0 0 0 0 0 0 0 0 0 
0 0 0 0 0 0 0 6.58054e-10 0 
0 0 0 0 4.05497e-09 0 6.09558e-09 0 0 
0 0 0 0 0 5.22815e-09 4.66758e-09 0 0 
0 0 0 0 0 0 0 0 0 
0 0 0 0 0 0 0 0 0 
0 0 0 0 0 0 0 0 0 
0 0 0 0 0 3.19538e-09 0 6.69465e-10 0 
0 5.74168e-10 2.81166e-09 8.70698e-10 0 0 0 0 9.55268e-10 
1.06504e-10 0 0 0 0 0 0 0 0 
0 0 2.33393e-09 1.24188e-09 0 0 0 1.2787e-09 2.80974e-09 
2.97363e-09 0 0 0 6.80065e-07 0 0 0 0 
0 0 1.45626e-09 0 0 0 0 0 0 
0 0 7.56187e-10 0 0 0 0 6.21057e-09 0 
1.07809e-09 0 4.24115e-09 0 0 7.7906e-07 0 0 4.62158e-10 
0 0 0 0 0 0 0 0 0 
0 0 0 0 0 0 0 0 0 
0 0 0 0 0 0 0 0 0 
1.26918e-09 0 0 8.75977e-07 8.93388e-07 0 0 1.60771e-10 0 
0 0 0 6.05526e-09 0 0 0 0 0 
2.18716e-09 0 0 1.76378e-09 0 0 0 0 0 
0 0 0 0 0 0 0 8.78206e-07 1.21544e-09 
0 0 0 0 4.66155e-09 1.69406e-09 0 0 6.75038e-07 
0 1.31006e-09 0 0 6.60846e-07 0 0 0 0 
0 0 0 2.39533e-09 1.55026e-09 0 3.33437e-09 0 0 
0 0 6.84393e-07 0 0 0 0 7.67303e-07 0 
0 0 0 0 0 0 0 0 0 
0 0 0 0 0 0 0 0 0 
0 0 0 0 0 0 0 0 0 
0 1.51399e-09 0 0 0 0 5.71363e-09 0 0 
1.8738e-09 1.46197e-09 0 0 0 6.44713e-07 7.59577e-09 2.86396e-09 8.44828e-10 
0 6.47431e-10 0 1.74848e-09 6.51349e-07 2.76795e-09 1.76841e-09 0 0 
5.65631e-10 0 3.51194e-10 0 0 0 0 0 0 
0 0 0 0 4.84143e-09 0 0 0 9.447e-10 
0 5.38688e-09 0 0 0 0 0 0 0 
1.65493e-09 0 6.59438e-07 0 0 0 2.34909e-09 3.73429e-10 0 
6.83894e-07 0 0 2.8594e-09 0 1.30643e-09 0 0 0 
0 0 0 0 0 0 0 0 0 
0 0 0 0 0 0 0 0 0 
0 0 0 0 0 0 0 0 0 
0 0 8.81948e-10 1.05128e-09 1.97281e-09 0 0 0 0 
0 0 1.33444e-09 4.64714e-10 0 0 0 0 1.7658e-09 
0 0 0 0 0 3.59031e-09 0 0 0 
0 8.74188e-10 0 0 0 0 0 9.9277e-07 1.15633e-06 
1.04969e-06 0 0 1.50089e-09 7.74643e-07 0 0 3.15917e-09 4.23937e-09 
0 0 3.15795e-09 0 0 0 0 0 0 
0 0 2.09126e-09 2.8915e-09 0 4.88518e-10 3.18014e-09 1.1333e-09 0 
1.36183e-09 0 0 0 0 7.71645e-10 0 1.59696e-09 7.33318e-10 
3.27874e-09 0 1.03168e-09 0 0 0 0 0 0 
0 0 0 0 0 0 0 0 0 
0 0 0 0 0 0 0 0 0 
0 0 0 0 0 5.39601e-09 0 0 7.01874e-09 
8.75104e-07 0 0 1.27658e-09 0 0 0 0 0 
0 0 0 0 0 1.03297e-09 1.59407e-09 0 0 
0 0 0 0 0 0 0 0 0 
1.88739e-09 0 0 0 0 0 5.50826e-09 7.35012e-07 0 
0 3.65336e-09 0 0 0 0 0 0 0 
0 4.41486e-10 0 0 0 0 0 0 6.6282e-07 
1.47363e-09 0 0 0 2.7828e-09 1.16803e-09 0 0 0 
0 0 3.81344e-11 0 0 0 0 0 0 
0 0 0 0 0 0 0 0 0 
0 0 0 0 0 0 0 0 0 
0 0 0 0 0 0 0 0 4.22735e-09 
0 8.64986e-07 0 0 0 0 0 1.13833e-09 0 
7.97966e-10 0 0 0 0 0 0 0 1.01995e-09 
0 0 0 0 0 0 0 0 0 
0 2.06077e-09 0 2.15448e-09 0 7.41019e-07 0 0 3.78883e-09 
0 0 0 0 3.86477e-10 0 0 0 0 
0 0 0 0 0 0 0 0 0 
0 0 0 0 0 2.12244e-09 0 0 0 
0 3.45641e-10 0 0 0 0 0 0 0 
0 0 0 0 0 0 0 0 0 
0 0 0 0 0 0 0 0 0 
0 0 0 0 1.16396e-09 0 1.14613e-09 0 0 
0 0 1.78622e-08 0 2.55457e-09 0 0 0 0 
0 0 0 0 0 0 0 0 0 
0 0 0 1.78035e-09 0 0 0 2.31008e-09 0 
4.48779e-09 7.10061e-07 3.04368e-09 0 0 0 7.08134e-09 3.60395e-09 5.33508e-09 
0 0 0 0 8.65239e-07 0 0 0 0 
0 0 0 0 0 0 0 2.93585e-10 0 
1.09861e-09 0 1.5573e-09 0 0 1.8929e-09 2.42843e-09 0 1.13178e-09 
1.12076e-09 3.38387e-10 0 0 0 0 0 0 0 
0 0 0 0 0 0 0 0 0 
0 0 0 0 0 0 0 0 0 
0 0 0 0 0 0 0 0 0 
0 0 1.66095e-09 0 0 0 6.51857e-10 0 0 
0 0 0 0 0 0 0 0 0 
0 0 0 0 0 2.90011e-09 6.46878e-07 5.42102e-09 1.27155e-09 
0 3.87533e-09 0 0 0 1.8815e-09 0 2.29148e-09 0 
0 0 0 0 2.40678e-09 8.6148e-07 0 3.56986e-09 1.64043e-09 
0 0 0 0 0 0 0 0 0 
0 0 0 0 4.21263e-10 6.9271e-10 0 0 2.40506e-09 
0 0 0 0 0 0 0 0 0 
0 0 0 0 0 0 0 0 0 
0 0 0 0 0 0 0 0 0 
0 0 0 0 0 0 0 4.047e-09 0 
0 1.44237e-09 0 1.07624e-09 0 0 0 0 1.34826e-09 
0 0 0 0 0 0 0 0 0 
0 0 0 0 0 0 0 3.23346e-09 0 
0 0 0 2.14419e-09 0 0 3.6004e-12 0 0 
0 0 0 0 0 0 0 0 0 
0 0 0 0 0 0 0 0 0 
0 0 0 0 0 0 1.56748e-09 0 6.52605e-07 
0 1.88835e-09 0 0 0 0 0 0 0 
0 0 0 0 0 0 0 0 0 
0 0 0 0 0 0 0 0 0 
0 0 0 0 0 0 0 0 6.44279e-07 
0 0 8.57165e-10 0 2.16951e-09 3.4346e-09 0 4.01145e-10 9.62618e-10 
1.00148e-09 0 0 0 0 0 0 0 0 
0 0 0 0 0 0 0 0 6.60016e-10 
0 0 0 0 7.71307e-10 0 0 5.76528e-10 0 
0 0 0 0 0 1.3038e-09 0 5.08298e-09 0 
1.91301e-09 0 0 0 4.17596e-09 0 6.36569e-10 8.15208e-10 0 
0 0 0 0 0 0 0 0 3.5778e-09 
1.99748e-09 0 0 0 0 1.46942e-09 0 0 0 
0 0 0 0 0 0 0 0 0 
0 0 0 0 0 0 0 0 0 
0 0 0 0 0 0 0 0 2.03568e-09 
1.45541e-09 0 3.57876e-10 0 0 0 1.03584e-09 0 0 
0 0 0 0 0 0 0 0 0 
0 0 0 0 1.19869e-09 0 0 0 9.6678e-10 
0 0 0 0 0 7.34968e-10 0 0 0 
0 0 0 0 0 0 0 0 0 
0 0 2.37525e-09 0 1.21243e-09 6.82852e-07 0 3.00212e-09 0 
0 0 0 0 0 0 0 0 0 
0 0 0 0 0 0 0 1.34334e-09 0 
0 0 0 0 0 0 0 0 0 
0 0 0 0 0 0 0 0 0 
0 0 0 0 0 0 0 0 0 
0 2.18719e-09 1.62136e-09 1.20772e-09 0 0 0 3.10622e-09 6.59459e-07 
4.61752e-09 0 0 0 0 0 0 0 0 
5.01034e-10 2.65961e-10 0 0 3.69075e-10 1.03091e-09 0 0 0 
0 0 0 0 0 0 0 4.10886e-10 0 
0 0 0 0 0 0 0 0 1.393e-09 
0 0 2.68758e-09 7.15599e-10 0 0 0 0 3.21547e-09 
0 0 0 0 0 0 0 0 0 
1.20644e-09 0 0 0 0 2.02626e-09 0 0 0 
2.66421e-11 0 0 0 0 0 0 0 0 
0 0 0 0 0 0 0 0 0 
0 0 0 0 0 0 0 0 0 
0 6.70444e-10 0 0 9.59477e-10 0 0 0 0 
0 0 4.36756e-09 0 6.73153e-07 0 0 1.50495e-09 0 
0 0 0 0 0 1.40497e-10 0 8.70718e-10 0 
0 0 0 0 8.87717e-10 0 0 2.63403e-09 0 
0 0 0 0 0 0 0 0 0 
0 6.39343e-10 0 0 0 6.79176e-07 6.44518e-09 0 0 
4.05443e-09 0 0 0 0 0 0 0 0 
0 7.47356e-10 2.11424e-09 0 6.52566e-07 4.22969e-09 0 0 2.5982e-09 
0 1.74594e-09 0 0 0 0 0 0 0 
0 0 0 0 0 0 0 0 0 
0 0 0 0 0 0 0 0 0 
0 0 0 0 0 0 0 0 0 
0 0 0 0 0 0 0 0 0 
0 0 0 0 3.81228e-09 0 0 2.63213e-09 0 
0 0 2.80519e-09 0 0 0 2.74003e-09 6.45386e-07 0 
4.54084e-09 0 0 0 0 0 0 0 0 
6.47108e-07 4.53869e-09 0 1.3273e-09 0 0 0 0 0 
1.48652e-08 6.6302e-07 0 2.23585e-09 0 0 0 0 0 
0 0 1.10718e-09 0 0 0 0 0 0 
0 0 8.56517e-07 0 0 0 0 0 0 
0 0 0 0 0 0 0 0 0 
0 0 0 0 0 0 0 0 0 
0 0 0 0 0 0 0 0 0 
0 0 0 0 0 0 4.83167e-09 0 0 
1.29736e-09 2.05642e-10 0 0 8.04257e-10 0 6.70899e-07 0 3.65376e-09 
0 0 0 0 0 0 2.23068e-09 4.5673e-10 0 
0 0 4.67279e-10 0 0 0 0 0 0 
0 0 1.39104e-09 0 0 0 3.45784e-09 0 0 
0 0 0 2.69964e-09 0 0 0 0 0 
0 0 0 0 0 0 0 0 8.85132e-10 
0 2.78666e-09 0 8.56794e-07 5.1936e-09 0 0 0 0 
0 0 0 0 0 0 0 0 0 
0 0 0 0 0 0 0 0 0 
0 0 0 0 0 0 0 0 1.12522e-09 
0 1.90039e-09 0 0 0 7.68938e-09 6.95505e-07 2.78251e-09 2.73204e-09 
1.01173e-09 2.66937e-09 0 0 0 0 0 0 0 
0 0 0 8.1412e-07 0 1.0686e-09 0 1.93709e-09 0 
0 0 1.54288e-10 0 0 0 0 0 0 
2.22903e-09 5.62082e-11 0 0 0 0 0 0 0 
6.5052e-10 0 0 0 0 0 1.31295e-10 0 0 
0 0 0 0 0 0 1.90838e-09 0 0 
0 0 0 0 0 0 1.2692e-09 0 3.13191e-10 
0 0 0 0 0 0 0 0 0 
0 0 0 0 0 0 0 0 0 
0 0 0 0 0 0 3.84286e-09 1.09007e-09 4.67967e-09 
0 1.12314e-09 0 2.57942e-09 8.11443e-07 0 0 0 3.00922e-09 
6.26474e-10 0 0 0 0 0 0 0 0 