# vtk DataFile Version 5.1
vtk output
ASCII
DATASET STRUCTURED_POINTS
DIMENSIONS 100 100 1
SPACING 1 1 1
ORIGIN 0 0 0
POINT_DATA 10000
FIELD FieldData 6
feature_1 1 10000 float
0 0 0 0 0 0 0 0 0 
0 0 0 0 0 0 0 0 0 
0 0 0 0 0 0 0 0 0 
0 0 0 0 0 0 0 0 0 
0 0 0 0 0 0 0 0 0 
0 0 0 0 0 0 0 0 0 
0 0 0 0 0 0 0 0 0 
0 0 0 0 0 0 0 0 0 
0 0 0 0 0 0 0 0 0 
0 0 0 0 0 0 0 0 0 
0 0 0 0 0 0 0 0 0 
0 0 0 0 0 0 0 0 0 
0 0 0 0 0 0 0 0 0 
0 0 0 0 0 0 0 0 0 
0 0 0 0 0 0 0 0 0 
0 0 0 0 0 0 0 0 0 
0 0 0 0 0 0 0 0 0 
0 0 0 0 0 0 0 0 0 
0 0 0 0 0 0 0 0 0 
0 0 0 0 0 0 0 0 0 
0 0 0 0 0 0 0 0 0 
0 0 0 0 0 0 0 0 0 
0 0 0 0 0 0 0 0 0 
0 0 0 0 0 0 0 0 0 
0 0 0 0 0 0 0 0 0 
0 0 0 0 0 0 0 0 0 
0 0 0 0 0 0 0 0 0 
0 0 0 0 0 0 0 0 0 
0 0 0 0 0 0 0 0 0 
0 0 0 0 0 0 0 0 0 
0 0 0 0 0 0 0 0 0 
0 0 0 0 0 0 0 0 0 
0 0 0 0 0 0 0 0 0 
0 0 0 0 0 0 0 0 0 
0 0 0 0 0 0 0 0 0 
0 0 0 0 0 0 0 0 0 
0 0 0 0 0 0 0 0 0 
0 0 0 0 0 0 0 0 0 
0 0 0 0 0 0 0 0 0 
0 0 0 0 0 0 0 0 0 
0 0 0 0 0 0 0 0 0 
0 0 0 0 0 0 0 0 0 
0 0 0 0 0 0 0 0 0 
0 0 0 0 0 0 0 0 0 
0 0 0 0 0 0 0 0 0 
0 0 0 0 0 0 0 0 0 
0 0 0 0 0 0 0 0 0 
0 0 0 0 0 0 0 0 0 
0 0 0 0 0 0 0 0 0 
0 0 0 0 0 0 0 0 0 
0 0 0 0 0 0 0 0 0 
0 0 0 0 0 0 0 0 0 
0 0 0 0 0 0 0 0 0 
0 0 0 0 0 0 0 0 0 
0 0 0 0 0 0 0 0 0 
0 0 0 0 0 0 0 0 0 
0 0 0 0 0 0 0 0 0 
0 0 0 0 0 0 0 0 0 
0 0 0 0 0 0 0 0 0 
0 0 0 0 0 0 0 0 0 
0 0 0 0 0 0 0 0 0 
0 0 0 0 0 0 0 0 0 
0 0 0 0 0 0 0 0 0 
0 0 0 0 0 0 0 0 0 
0 0 0 0 0 0 0 0 0 
0 0 0 0 0 0 0 0 0 
0 0 0 0 0 0 0 0 0 
0 0 0 0 0 0 0 0 0 
0 0 0 0 0 0 0 0 0 
0 0 0 0 0 0 0 0 0 
0 0 0 0 0 0 0 0 0 
0 0 0 0 0 0 0 0 0 
0 0 0 0 0 0 0 0 0 
0 0 0 0 0 0 0 0 0 
0 0 0 0 0 0 0 0 0 
0 0 0 0 0 0 0 0 0 
0 0 0 0 0 0 0 0 0 
0 0 0 0 0 0 0 0 0 
0 0 0 0 0 0 0 0 0 
0 0 0 0 0 0 0 0 0 
0 0 0 0 0 0 0 0 0 
0 0 0 0 0 0 0 0 0 
0 0 0 0 0 0 0 0 0 
0 0 0 0 0 0 0 0 0 
0 0 0 0 0 0 0 0 0 
0 0 0 0 0 0 0 0 0 
0 0 0 0 0 0 0 0 0 
0 0 0 0 0 0 0 0 0 
0 0 0 0 0 0 0 0 0 
0 0 0 0 0 0 0 0 0 
0 0 0 0 0 0 0 0 0 
0 0 0 0 0 0 0 0 0 
0 0 0 0 0 0 0 0 0 
0 0 0 0 0 0 0 0 0 
0 0 0 0 0 0 0 0 0 
0 0 0 0 0 0 0 0 0 
0 0 0 0 0 0 0 0 0 
0 0 0 0 0 0 0 0 0 
0 0 0 0 0 0 0 0 0 
0 0 0 0 0 0 0 0 0 
0 0 0 0 0 0 0 0 0 
0 0 0 0 0 0 0 0 0 
0 0 0 0 0 0 0 0 0 
0 0 0 0 0 0 0 0 0 
0 0 0 0 0 0 0 0 0 
0 0 0 0 0 0 0 0 0 
0 0 0 0 0 0 0 0 0 
0 0 0 0 0 0 0 0 0 
0 0 0 0 0 0 0 0 0 
0 0 0 0 0 0 0 0 0 
0 0 0 0 0 0 0 0 0 
0 0 0 0 0 0 0 0 0 
0 0 0 0 0 0 0 0 0 
0 0 0 0 0 0 0 0 0 
0 0 0 0 0 0 0 0 0 
0 0 0 0 0 0 0 0 0 
0 1.67379e-09 0 0 0 0 0 0 0 
0 0 0 0 0 0 0 2.33163e-09 4.62849e-10 
0 0 0 0 0 0 0 0 0 
0 0 0 0 0 0 0 0 0 
0 0 0 0 0 0 0 0 0 
0 0 0 0 0 0 0 0 0 
0 0 0 0 0 0 0 0 0 
0 0 0 0 0 0 0 0 0 
0 0 0 0 0 0 0 0 0 
0 0 0 0 0 0 0 0 0 
0 0 0 0 0 0 0 0 1.07614e-09 
0 0 0 0 0 0 0 0 0 
0 0 0 0 0 0 0 0 0 
0 0 0 0 0 0 0 0 0 
0 0 0 0 0 0 0 0 0 
0 0 0 0 0 0 0 0 0 
0 0 0 0 0 0 0 0 0 
0 0 0 0 0 0 0 0 0 
0 0 0 0 0 0 0 0 0 
0 0 0 0 0 0 0 0 0 
0 0 0 0 0 0 0 0 0 
0 0 0 0 0 0 0 0 0 
0 0 0 7.92723e-07 6.09751e-09 2.45011e-09 0 1.04406e-09 0 
0 0 0 0 0 0 1.95788e-09 1.09764e-09 6.44963e-07 
1.70528e-09 0 0 0 0 0 0 0 0 
0 0 0 0 0 0 0 0 0 
0 0 0 0 0 0 0 0 0 
0 0 0 0 0 0 0 0 0 
0 0 0 0 0 0 0 0 0 
0 0 0 0 0 0 0 0 0 
0 0 0 0 0 0 0 0 0 
0 0 0 0 4.41013e-10 0 0 0 0 
0 0 0 1.31293e-09 0 0 0 0 0 
3.11667e-09 0 0 8.33425e-07 0 6.52041e-09 0 0 0 
8.07817e-10 0 0 0 0 0 0 0 0 
0 0 1.74927e-09 1.20531e-09 8.56711e-10 0 0 0 0 
0 0 0 0 0 0 0 0 0 
0 1.68357e-09 0 0 0 0 0 0 0 
0 0 0 0 0 0 0 0 0 
0 0 0 0 0 0 0 0 0 
0 0 0 0 0 0 0 0 0 
0 0 0 0 0 0 0 0 0 
0 0 0 0 4.46489e-09 6.46885e-07 0 0 0 
0 0 0 1.75129e-09 0 7.55501e-09 0 0 1.31972e-09 
0 0 0 0 0 0 0 0 1.51199e-09 
0 0 0 0 0 0 0 0 0 
0 0 0 0 0 0 0 0 0 
0 0 0 0 0 0 1.09521e-09 0 0 
6.46192e-07 1.3963e-09 0 8.55668e-10 0 0 0 0 0 
0 0 0 0 0 0 0 0 0 
0 0 0 0 0 0 0 0 0 
0 0 0 0 0 0 0 0 0 
0 0 0 0 0 0 0 0 0 
0 0 0 0 0 0 0 0 0 
0 0 0 0 1.01571e-09 3.79961e-09 0 4.35578e-09 2.63384e-09 
0 0 0 0 0 0 7.98646e-07 0 0 
9.28944e-10 0 0 0 0 0 0 0 0 
0 0 1.34721e-09 0 0 0 0 0 0 
0 0 0 0 1.019e-09 0 0 0 0 
0 6.38095e-11 0 0 4.86825e-10 0 0 0 0 
0 0 0 0 0 0 0 0 0 
0 0 0 0 0 0 0 0 0 
0 0 0 0 0 0 0 0 0 
0 0 0 0 0 0 0 0 0 
0 0 0 0 0 0 1.9386e-09 0 0 
7.25091e-10 0 0 3.83629e-10 0 0 2.3717e-09 0 0 
0 0 9.02918e-10 0 0 7.41705e-07 1.19444e-08 0 0 
0 0 6.89624e-07 0 7.81787e-10 9.77928e-10 0 0 0 
0 0 0 0 1.41415e-09 0 1.86455e-09 0 1.50895e-09 
0 2.13861e-09 0 0 0 0 0 0 0 
0 0 0 5.12684e-10 0 0 0 0 0 
0 0 0 0 0 0 0 0 0 
0 0 0 0 0 0 0 0 0 
0 0 0 0 0 0 0 0 0 
0 0 0 0 0 0 0 0 0 
0 0 0 0 0 0 1.25714e-09 5.10957e-09 0 
2.06312e-09 0 0 0 0 0 0 0 2.02072e-09 
1.70142e-09 0 0 0 1.23692e-09 1.73926e-09 0 0 2.20668e-09 
0 0 0 0 0 0 6.88486e-10 0 0 
0 0 0 0 0 0 0 7.18999e-07 0 
7.19157e-07 7.94208e-09 0 0 0 0 0 0 6.67327e-07 
0 0 0 0 0 0 0 0 0 
0 0 0 0 0 0 0 0 0 
0 0 0 0 0 0 0 0 0 
0 0 0 0 0 0 0 0 0 
0 0 0 0 0 0 0 0 0 
0 1.12418e-11 0 0 0 3.51878e-09 0 1.4014e-09 0 
0 0 0 0 0 0 0 0 1.7013e-09 
0 0 0 0 0 0 0 0 0 
0 0 0 0 0 0 1.77793e-09 0 0 
0 0 0 0 0 0 0 0 0 
0 0 2.19239e-09 0 0 0 0 1.0739e-09 0 
0 0 2.02513e-09 2.03006e-09 1.2984e-09 0 0 0 0 
0 0 0 0 0 0 0 0 0 
0 0 0 0 0 0 0 0 0 
0 0 0 0 0 0 0 0 0 
0 0 0 0 0 0 0 0 0 
0 0 0 0 0 0 0 1.78655e-09 1.58624e-09 
3.84224e-09 6.4954e-07 0 0 0 0 0 0 0 
0 0 0 0 6.50128e-07 0 0 0 0 
0 8.98459e-07 9.15249e-07 0 1.8165e-09 7.20301e-07 0 0 0 
0 0 0 0 0 0 0 1.83302e-09 0 
0 1.59323e-09 0 0 0 1.43349e-09 0 1.66753e-09 0 
1.95075e-09 0 8.08806e-10 1.30729e-09 1.10513e-09 0 0 0 0 
0 0 0 0 0 0 0 0 0 
0 0 0 0 0 0 0 0 0 
0 0 0 0 0 0 0 0 0 
0 0 0 0 0 0 0 0 0 
0 0 0 6.45658e-10 1.85881e-09 4.22015e-09 6.46971e-07 5.42292e-09 0 
0 2.6209e-09 3.48981e-09 0 0 0 0 0 1.20442e-10 
0 0 0 0 0 0 0 0 1.4977e-09 
0 0 0 0 0 0 1.69693e-09 0 1.10523e-09 
0 0 1.17024e-09 0 0 0 0 0 0 
0 0 0 0 0 0 2.05079e-10 0 0 
0 6.68509e-07 1.04517e-09 0 0 0 0 0 0 
0 0 0 0 0 0 0 1.54756e-09 0 
0 0 0 0 0 0 0 0 0 
0 0 0 0 0 0 0 0 0 
0 0 0 0 0 0 0 0 0 
0 0 0 0 0 1.0229e-09 0 0 5.07502e-09 
1.96495e-09 0 1.48239e-09 0 1.57138e-09 0 0 0 0 
0 7.99759e-10 0 0 0 0 0 0 0 
1.46743e-09 0 0 0 0 0 0 3.08967e-09 0 
1.4249e-09 0 0 0 0 0 0 0 0 
0 0 5.97665e-10 0 0 1.76967e-09 6.4625e-11 0 0 
0 0 0 0 6.79369e-10 0 0 0 1.74899e-09 
0 0 0 0 0 0 1.33216e-09 4.96174e-09 0 
0 0 0 0 0 0 0 0 0 
0 0 0 0 0 0 0 0 0 
0 0 0 0 0 0 0 0 0 
0 0 0 0 0 0 0 0 0 
0 0 0 0 0 0 0 0 0 
0 0 0 0 0 0 0 0 0 
0 0 0 0 0 1.97369e-09 0 0 2.46255e-10 
0 4.21046e-10 0 0 0 0 0 0 0 
0 0 0 0 0 0 0 4.40569e-09 0 
0 0 0 0 0 1.65562e-09 0 0 0 
0 0 0 0 0 0 0 0 0 
7.18983e-07 0 1.83639e-09 1.55632e-09 0 0 0 0 0 
0 0 0 0 0 0 0 0 0 
0 0 0 0 0 0 0 0 0 
0 0 0 0 0 1.36082e-09 0 0 0 
0 0 0 0 0 0 0 1.57302e-09 0 
0 0 6.94605e-10 3.87165e-10 0 0 7.70115e-10 0 0 
2.37591e-10 0 0 0 1.60068e-09 0 0 8.76575e-07 8.73947e-07 
0 0 0 0 0 0 0 0 5.55195e-10 
0 0 0 0 0 0 0 0 6.46577e-07 
0 0 0 2.58183e-10 0 0 0 0 0 
0 6.54898e-07 0 0 0 0 0 0 2.90683e-09 
5.79804e-09 0 0 0 0 0 0 0 0 
0 0 0 0 0 0 0 0 0 
0 0 0 0 0 0 0 0 0 
6.78274e-10 0 0 0 0 0 0 1.09371e-09 0 
0 0 0 0 0 0 0 0 0 
1.20093e-09 0 0 0 0 7.22792e-10 0 0 0 
0 0 0 0 0 1.7298e-09 0 0 3.37626e-09 
0 0 2.06347e-09 1.68143e-10 0 0 6.45891e-07 1.78008e-09 0 
9.79364e-10 0 0 0 0 0 0 2.74828e-09 0 
0 0 0 0 0 0 4.72486e-09 0 0 
0 0 1.36611e-09 3.27885e-10 3.81969e-09 0 1.20461e-09 0 1.09603e-09 
1.50591e-09 0 7.25598e-07 0 0 0 0 0 0 
0 0 0 0 0 0 0 0 0 
0 0 0 0 0 0 0 0 0 
0 0 0 9.80231e-10 1.13586e-09 1.56486e-10 0 0 0 
0 0 0 0 0 0 0 0 0 
0 0 3.00565e-09 0 8.9581e-10 0 9.19587e-10 1.53684e-10 0 
0 0 0 0 0 0 0 1.97741e-09 0 
4.38733e-09 0 0 0 2.52608e-09 0 0 2.59018e-09 9.04568e-10 
0 0 1.16326e-09 0 0 0 0 6.23082e-10 0 
0 0 1.47939e-09 1.04296e-09 0 0 8.97312e-09 6.54649e-07 4.65729e-09 
0 0 0 0 0 0 0 5.63003e-10 0 
0 0 3.8363e-09 0 0 3.96093e-10 0 0 0 
0 0 0 0 0 0 0 0 0 
0 0 0 0 0 0 0 0 0 
0 0 0 0 0 0 0 0 0 
7.18692e-07 0 0 0 0 0 0 0 0 
0 0 4.18336e-09 6.47117e-07 0 0 1.61789e-09 3.78947e-09 6.989e-07 
0 2.42762e-09 1.57246e-09 0 0 0 0 1.23355e-09 0 
0 0 0 0 1.40466e-09 0 0 0 0 
0 0 0 0 0 0 0 0 7.013e-10 
0 0 1.13865e-09 0 1.89848e-09 0 0 0 3.12561e-09 
0 0 2.90628e-09 0 0 0 0 1.12459e-09 0 
0 0 0 2.81539e-09 0 0 2.56053e-09 0 0 
0 0 0 0 0 0 0 0 0 
0 0 0 0 0 0 0 0 0 
0 0 0 6.59885e-07 0 0 0 0 7.75521e-07 
0 0 0 0 0 0 0 0 0 
0 0 0 0 0 0 0 0 0 
0 0 7.06243e-07 0 0 3.94171e-09 0 0 0 
0 9.35998e-10 2.868e-09 2.75303e-11 0 7.21484e-10 0 0 0 
1.1578e-09 0 0 0 0 0 0 0 0 
0 1.01952e-09 0 0 0 0 0 0 0 
0 0 0 0 0 6.56214e-07 0 0 1.36361e-09 
0 4.90596e-10 0 0 6.13577e-10 8.6393e-10 0 1.45884e-09 0 
0 0 0 0 0 0 0 0 0 
0 0 0 0 0 0 0 0 0 
0 0 1.48739e-09 4.09687e-09 0 0 0 0 0 
0 0 3.54408e-09 2.2812e-09 0 0 1.12852e-09 0 0 
0 0 0 0 1.1978e-09 0 0 0 0 
1.61903e-09 0 0 0 0 0 2.24943e-09 6.04928e-09 3.62378e-09 
0 5.92891e-09 7.0431e-07 0 0 2.89964e-10 0 0 0 
0 0 0 0 3.83883e-09 2.89667e-09 4.7797e-09 1.65816e-09 0 
0 0 5.06036e-10 0 0 0 2.05125e-09 0 0 
0 0 2.50907e-09 0 0 0 0 0 0 
0 0 0 0 0 6.73303e-07 0 0 0 
1.75284e-10 0 0 0 0 0 0 0 0 
0 0 0 0 0 0 0 0 0 
0 0 0 0 0 0 1.44457e-09 0 7.11408e-07 
9.16274e-09 1.11944e-09 7.43718e-07 4.81284e-09 2.65449e-09 0 0 0 0 
0 6.86523e-10 0 0 0 0 0 0 0 
0 1.13154e-09 1.42429e-09 0 0 0 0 0 0 
0 0 0 7.26564e-09 0 0 0 0 0 
0 0 0 0 1.32692e-09 0 6.5918e-07 4.64974e-09 2.48445e-09 
0 0 0 0 0 0 6.50315e-07 2.26088e-09 1.67559e-09 
0 0 6.71023e-09 3.59015e-09 2.63001e-09 0 0 0 8.7795e-10 
0 0 0 0 0 0 0 0 0 
0 0 0 0 0 0 0 0 0 
0 0 0 0 0 0 0 0 0 
0 0 0 0 0 0 2.13751e-09 2.17771e-09 0 
0 0 0 0 0 6.55707e-10 1.40367e-09 0 2.79804e-09 
0 0 2.85536e-09 1.62314e-09 0 0 0 0 0 
0 0 3.59987e-10 0 0 0 0 0 0 
7.02459e-07 0 0 7.23912e-07 4.74949e-09 0 0 0 0 
0 0 0 0 0 0 0 2.62138e-09 0 
0 0 0 1.71548e-09 1.38655e-09 0 4.56863e-09 0 3.609e-09 
0 0 4.16183e-09 6.50569e-07 0 0 1.09999e-09 0 1.13158e-09 
0 0 0 0 1.98699e-09 0 0 0 0 
0 0 4.50004e-10 0 0 0 0 0 0 
0 0 0 0 0 0 0 0 0 
0 0 0 0 0 0 0 0 4.87721e-10 
0 0 0 0 0 0 2.05419e-09 3.32597e-09 0 
0 8.71946e-07 0 0 0 0 0 0 0 
0 0 0 0 0 0 0 7.21014e-07 0 
5.64017e-09 0 0 0 0 0 0 0 0 
0 0 0 2.13191e-10 1.58191e-09 2.53656e-09 2.08362e-09 3.84416e-09 0 
0 0 0 0 0 0 0 0 0 
0 0 0 0 0 0 0 0 0 
0 0 0 0 0 0 0 6.76145e-07 4.63195e-09 
0 0 0 0 0 0 0 0 0 
0 0 0 0 0 0 0 0 0 
0 0 0 0 0 0 0 0 2.63665e-10 
0 1.29283e-09 1.19738e-09 0 1.66757e-09 0 0 2.17828e-10 0 
3.91157e-09 0 8.85232e-07 0 0 0 0 0 0 
0 0 0 0 0 2.76389e-09 0 5.72913e-09 0 
0 0 3.28502e-09 2.93358e-09 0 0 0 0 1.30693e-09 
0 0 0 0 0 0 0 5.2075e-07 6.73604e-10 
0 3.2546e-09 0 0 0 0 2.45607e-09 3.41142e-09 0 
0 0 1.25933e-09 1.92132e-09 0 0 0 0 0 
0 0 0 0 0 0 1.97725e-09 0 0 
0 0 0 0 0 0 0 0 0 
0 0 0 0 0 0 0 0 1.11344e-12 
0 0 0 0 0 0 0 0 0 
0 0 0 0 0 0 8.15887e-10 0 0 
0 0 0 0 0 5.63607e-09 6.84722e-07 4.5237e-09 0 
0 0 0 0 7.62043e-10 0 0 0 0 
0 0 0 0 0 0 0 0 0 
0 0 0 0 0 0 0 0 5.62564e-09 
0 0 0 0 7.4852e-07 0 8.04953e-07 0 0 
0 0 0 0 0 0 0 0 0 
0 0 0 0 0 3.70822e-09 6.55944e-07 0 0 
0 0 0 0 0 0 0 0 0 
0 0 0 0 0 0 0 0 0 
0 0 0 0 0 0 0 0 0 
0 0 0 0 0 0 0 0 0 
2.36565e-09 1.44374e-09 0 0 0 0 1.54857e-09 4.45177e-09 7.64923e-10 
0 1.7912e-09 0 0 0 0 0 0 0 
8.99379e-07 9.13627e-07 0 4.1424e-09 3.99942e-10 8.19891e-11 0 0 4.53909e-09 
0 0 0 0 0 0 0 0 0 
7.39111e-10 1.36964e-09 1.92015e-09 0 0 0 0 3.66163e-09 0 
1.87607e-09 0 0 0 0 9.41434e-10 7.69009e-10 0 0 
0 0 0 0 0 0 2.25042e-09 2.42394e-09 0 
2.65511e-09 0 0 0 0 0 0 0 0 
0 0 0 0 0 0 0 0 0 
0 0 0 0 0 0 0 0 0 
0 0 0 0 0 0 0 0 0 
0 0 0 2.47769e-09 0 0 0 0 0 
0 7.72849e-10 0 0 0 0 0 0 2.9562e-09 
0 0 0 0 4.31485e-09 0 0 0 3.44364e-09 
0 0 2.12976e-09 0 3.76447e-09 0 0 0 0 
0 2.64923e-09 0 0 0 0 0 0 3.4666e-09 
8.77681e-07 0 0 7.3566e-07 0 1.34816e-09 1.65686e-09 0 0 
0 0 0 0 0 0 0 0 0 
0 0 0 0 0 0 0 0 0 
0 0 0 0 0 0 0 0 0 
0 0 0 0 0 0 0 0 0 
0 0 0 0 0 0 0 0 0 
0 0 0 3.63411e-09 7.14366e-07 0 9.08117e-09 0 0 
4.1823e-09 3.41297e-09 0 2.16476e-09 0 0 0 0 9.36633e-10 
0 0 0 0 0 0 0 0 0 
0 7.62091e-07 0 0 0 6.589e-07 0 1.16292e-09 6.63809e-10 
0 8.19502e-10 0 0 1.72144e-09 0 0 0 0 
8.32073e-07 0 0 0 2.95883e-09 0 0 0 0 
0 0 0 0 1.16031e-10 0 0 0 0 
0 0 0 5.80781e-10 4.60253e-10 0 0 0 0 
0 0 0 0 0 0 0 0 0 
0 0 0 0 0 0 0 0 0 
0 0 0 0 0 0 0 0 0 
0 0 8.10316e-10 0 0 0 0 7.79149e-07 4.57423e-09 
0 0 0 6.5421e-07 0 0 1.58968e-09 4.48558e-10 0 
0 1.98752e-09 0 0 7.12595e-07 0 0 0 0 
0 0 1.01502e-08 0 0 0 4.28602e-09 0 1.4399e-09 
0 0 0 0 0 0 5.68571e-10 0 0 
0 0 1.14147e-09 0 7.48262e-07 7.0196e-09 0 0 0 
0 0 0 0 0 0 0 0 0 
0 0 0 0 0 0 0 0 0 
0 0 0 0 0 0 0 0 0 
0 0 0 0 0 0 0 0 0 
0 0 0 0 0 0 0 0 0 
0 0 0 0 0 0 0 0 5.43002e-09 
3.4603e-09 0 0 3.88291e-09 4.62326e-09 0 1.58412e-09 0 0 
0 0 0 0 0 0 0 1.03738e-09 8.38531e-09 
0 8.81076e-07 0 8.21428e-07 2.47504e-09 3.93956e-09 0 0 3.6522e-09 
0 0 0 0 0 0 0 0 0 
0 0 2.31859e-09 0 0 0 0 0 0 
5.38569e-10 0 0 0 0 0 0 0 0 
0 0 0 0 0 0 0 0 0 
0 0 0 0 0 0 0 0 0 
0 0 0 0 0 0 0 0 0 
0 0 0 0 0 0 6.88695e-10 0 0 
0 0 0 0 0 0 1.78128e-09 2.44491e-09 1.0217e-08 
7.3322e-07 0 0 1.3963e-09 0 0 0 1.34258e-09 0 
0 0 0 0 0 0 0 9.039e-09 0 
0 8.59851e-07 0 0 0 0 0 0 0 
0 0 0 0 0 6.67481e-07 0 3.49131e-09 0 
0 1.62262e-09 0 0 4.2645e-09 0 0 0 0 
0 0 0 0 0 0 0 0 0 
0 0 6.41521e-10 0 0 0 0 0 0 
0 0 0 0 0 0 0 0 0 
0 0 0 0 0 0 0 0 0 
0 0 0 0 0 0 0 6.442e-07 0 
0 0 0 0 0 0 0 0 0 
0 0 2.04678e-09 0 2.15512e-09 0 2.31424e-09 1.47267e-09 0 
0 0 0 8.24859e-10 0 0 0 0 0 
7.54912e-07 0 0 0 0 0 0 0 0 
0 0 0 1.32483e-09 0 0 5.06825e-09 0 3.06864e-09 
0 0 0 0 0 0 2.43666e-09 0 1.11678e-09 
1.19427e-09 0 0 0 0 0 0 0 0 
0 0 0 0 0 0 0 0 0 
5.71738e-10 0 0 0 0 0 0 0 0 
0 0 0 0 0 0 0 0 0 
0 0 0 0 0 0 2.41376e-09 2.01571e-09 0 
0 0 0 0 0 0 0 0 0 
0 3.1074e-09 0 0 0 0 0 0 0 
0 0 0 0 5.70056e-10 0 0 3.0913e-09 0 
0 0 0 0 0 0 5.56922e-10 1.01974e-09 0 
0 0 0 0 0 0 0 0 0 
4.65744e-09 0 0 8.4632e-07 0 8.42031e-07 9.02648e-09 0 7.07571e-10 
0 0 0 0 0 0 0 0 4.55747e-11 
0 0 0 0 3.56052e-09 0 0 0 0 
2.26195e-09 9.6108e-10 0 0 0 0 0 0 0 
0 0 0 0 0 0 0 0 0 
0 0 0 0 0 0 0 0 0 
0 0 0 0 1.49611e-09 3.03345e-09 0 0 0 
0 0 0 0 0 0 0 0 0 
0 0 0 0 2.27371e-10 0 0 0 0 
1.60164e-09 0 5.08945e-09 0 0 3.975e-09 0 0 0 
0 0 0 0 6.82989e-10 0 0 0 0 
6.76059e-07 3.04446e-09 0 0 0 8.80439e-07 0 3.77613e-09 2.69455e-09 
0 0 2.36094e-10 0 0 0 0 0 0 
3.49796e-10 0 1.41122e-09 0 4.32347e-09 0 0 0 7.17208e-07 
2.0898e-09 0 0 0 0 0 0 0 0 
0 0 0 0 0 0 0 0 0 
0 0 0 0 0 0 1.218e-10 0 0 
0 0 7.49049e-10 0 0 0 0 6.4418e-07 0 
0 1.3443e-09 0 0 0 0 0 0 0 
0 0 0 0 6.48369e-07 0 0 0 0 
0 0 0 0 9.07135e-07 8.93526e-07 0 0 0 
0 0 0 0 0 0 0 0 0 
2.6321e-09 8.83784e-09 0 0 0 1.40904e-09 0 0 1.76056e-09 
0 0 0 4.12836e-10 0 0 0 0 0 
1.5549e-09 0 0 0 0 1.22063e-08 7.00069e-07 0 0 
0 0 0 0 0 0 0 0 0 
0 0 0 0 0 0 0 0 0 
0 0 0 0 0 0 0 0 0 
0 0 0 0 0 0 0 1.5052e-09 1.71095e-09 
0 0 0 0 0 0 0 0 0 
1.70816e-10 0 0 0 2.89373e-09 0 0 2.4039e-09 0 
0 0 0 0 0 1.13318e-08 0 0 0 
0 0 0 0 0 0 0 0 0 
0 0 0 0 0 0 0 0 6.71375e-11 
0 0 0 0 0 0 0 0 0 
0 0 1.76252e-09 0 0 0 0 2.01993e-09 0 
4.99272e-09 0 7.11517e-07 0 0 0 0 0 0 
0 0 0 0 0 0 0 0 0 
0 0 0 0 0 0 0 0 0 
2.67012e-10 4.75336e-10 0 0 8.04221e-10 0 0 0 0 
1.26222e-09 0 0 0 0 0 0 0 0 
0 0 0 0 0 2.46597e-09 0 0 5.70366e-10 
0 0 0 0 9.85572e-10 0 0 0 3.46943e-09 
3.63078e-10 0 0 0 0 0 0 0 0 
0 0 0 0 0 0 1.76783e-09 0 2.95478e-09 
2.56347e-09 0 0 0 0 0 0 0 0 
0 0 0 0 0 0 6.87742e-07 1.06397e-09 1.46444e-09 
0 0 3.51263e-09 2.37809e-09 0 0 0 0 0 
0 0 0 0 0 0 0 0 0 
0 0 0 0 0 0 0 0 0 
0 0 0 0 0 0 0 0 0 
0 0 0 5.7709e-10 0 0 0 0 0 
0 0 0 9.54814e-10 0 0 0 2.02169e-09 1.43477e-09 
0 0 0 0 1.93052e-09 8.62702e-09 6.77695e-07 0 0 
1.45529e-09 0 9.60944e-10 0 0 0 0 0 0 
0 0 0 0 0 0 7.82045e-10 0 0 
0 0 0 0 0 0 3.93679e-09 3.07859e-09 0 
0 0 0 6.54428e-07 0 1.91657e-09 7.56353e-10 0 0 
3.58302e-09 0 0 0 0 2.53672e-09 0 0 0 
0 0 0 0 0 0 0 0 0 
0 0 0 0 0 0 0 0 0 
0 0 0 1.57305e-09 0 2.04186e-09 0 0 0 
1.18206e-09 0 0 0 0 0 0 0 0 
0 0 0 0 0 0 6.48241e-07 0 0 
0 0 0 0 0 0 0 0 3.3809e-09 
0 0 1.02285e-09 0 0 0 0 0 0 
0 0 0 0 0 0 0 0 0 
0 0 0 0 0 2.52378e-09 6.11653e-09 6.49452e-07 0 
0 0 0 0 8.38361e-09 3.84149e-09 0 0 0 
0 1.54774e-09 0 0 0 0 0 1.26893e-09 1.64034e-09 
0 5.03804e-10 0 0 0 0 0 0 0 
0 0 0 0 0 0 0 0 0 
0 0 0 0 0 8.69212e-10 6.44403e-07 4.51623e-09 3.54302e-09 
0 0 0 0 0 0 0 0 0 
0 0 0 0 0 1.04688e-09 1.76964e-09 0 0 
0 0 0 0 0 0 9.44269e-10 1.23726e-09 0 
2.68731e-09 0 0 0 0 0 0 6.7766e-07 0 
0 7.0993e-10 0 0 0 0 0 0 0 
0 0 0 0 4.2406e-09 0 0 2.92526e-09 0 
0 0 0 7.55489e-10 0 0 0 0 0 
0 0 0 3.65735e-09 0 0 0 6.60492e-07 0 
0 0 5.45813e-10 0 0 0 0 0 0 
0 0 0 0 0 0 0 0 0 
0 0 0 0 9.14641e-10 0 0 0 2.45735e-09 
0 0 0 0 0 0 0 0 0 
0 6.90162e-10 0 0 0 0 0 0 5.79828e-10 
0 8.8461e-10 0 0 0 0 0 0 3.8352e-10 
0 0 0 0 3.67762e-10 0 2.40783e-09 0 0 
0 0 0 0 0 0 0 0 0 
0 0 0 0 0 6.48656e-07 4.39904e-09 4.46426e-09 0 
0 0 0 0 0 1.02756e-09 0 0 0 
3.46262e-09 0 6.57158e-07 3.19421e-09 0 1.91514e-09 0 1.80722e-09 0 
0 0 0 0 0 0 0 0 0 
0 0 0 0 0 0 0 0 0 
0 0 0 0 0 0 0 0 0 
1.48321e-09 6.15502e-10 0 0 0 0 0 0 0 
0 0 0 0 5.75557e-10 0 0 0 0 
0 0 1.06515e-09 0 0 0 0 8.08622e-10 0 
0 0 0 1.47362e-09 0 0 0 1.0206e-09 3.83595e-09 
0 0 0 9.85936e-07 9.13964e-07 0 0 5.07524e-10 0 
0 0 0 0 0 0 0 0 0 
1.11507e-09 8.81306e-10 0 0 0 0 7.26254e-10 0 0 
0 0 0 0 0 0 0 0 0 
0 0 0 0 0 0 0 0 0 
0 0 0 0 0 0 0 0 0 
0 0 0 0 0 0 0 0 0 
1.29065e-09 0 0 0 0 0 0 0 0 
0 0 0 0 0 0 1.29225e-09 1.07825e-09 0 
0 0 0 0 0 0 0 4.75103e-10 0 
0 0 0 0 0 0 0 0 0 
0 0 0 8.31314e-07 0 0 6.80578e-09 0 0 
4.77853e-10 4.6129e-10 0 0 0 0 0 8.32707e-10 9.94395e-10 
0 0 0 0 0 0 0 0 0 
2.97795e-09 8.10193e-10 1.90831e-09 0 0 0 1.08292e-09 0 0 
0 0 1.84385e-09 0 0 0 0 0 0 
0 0 0 0 0 0 0 0 0 
0 0 0 0 0 0 0 0 5.65102e-10 
0 0 0 0 0 0 0 0 0 
0 0 0 0 0 0 1.86629e-09 0 0 
0 0 6.15889e-10 0 0 0 4.2325e-09 6.47267e-07 0 
0 0 0 0 1.65095e-09 0 0 0 0 
6.70683e-07 0 3.55518e-09 0 0 0 0 0 0 
0 0 0 0 0 0 0 0 0 
0 0 0 0 0 0 0 0 4.68807e-09 
6.66163e-07 0 0 1.40869e-09 1.22121e-09 0 0 0 0 
1.83844e-09 6.56898e-07 0 0 0 0 0 0 0 
0 0 0 0 0 0 0 0 0 
0 0 0 0 0 0 0 0 2.28389e-10 
0 0 0 5.90038e-09 0 0 0 0 0 
0 0 0 0 0 5.86898e-09 6.78829e-07 0 0 
0 0 0 1.15238e-09 0 0 0 3.38749e-09 0 
2.70278e-09 0 0 0 0 0 0 1.8306e-09 0 
0 6.12996e-09 0 0 0 0 0 3.5556e-09 4.10562e-10 
7.60608e-12 6.10142e-10 0 0 0 0 0 0 0 
0 0 0 0 0 0 0 0 0 
0 0 0 2.6699e-09 0 0 0 0 2.08651e-09 
0 1.11709e-08 0 0 0 0 0 0 0 
0 0 0 0 0 0 0 0 0 
0 0 0 0 0 0 0 0 0 
0 0 0 6.44114e-07 0 0 0 0 0 
0 0 0 0 6.79551e-07 0 0 0 5.54474e-09 
0 0 0 5.34842e-10 0 0 0 3.5378e-09 0 
1.95594e-09 2.11642e-09 0 0 0 0 1.1728e-09 1.17272e-09 6.56466e-07 
4.6787e-09 3.35835e-09 0 0 0 0 0 1.95125e-09 0 
0 0 0 0 0 0 8.38361e-10 0 0 
0 0 0 0 0 0 0 0 1.6611e-09 
0 0 0 0 0 2.16665e-09 0 0 5.26795e-09 
0 0 2.25164e-09 0 0 0 0 0 0 
0 0 0 0 0 0 0 0 0 
0 0 0 0 0 0 0 0 0 
0 0 0 0 2.03714e-09 0 0 0 1.16351e-09 
0 0 0 0 0 0 0 0 0 
0 1.99709e-09 0 1.63612e-09 0 0 3.77742e-09 0 0 
2.21019e-09 0 0 8.82015e-10 0 0 0 0 0 
1.05933e-09 2.4253e-09 1.17556e-09 0 0 0 0 0 0 
0 0 1.47403e-09 6.68047e-07 4.82195e-09 0 0 7.19458e-10 0 
0 0 0 0 0 0 0 0 0 
0 0 0 0 0 1.52587e-09 0 2.36077e-09 0 
6.52375e-07 0 0 0 2.13194e-09 1.17469e-09 0 0 0 
0 0 0 0 0 0 0 0 0 
0 0 0 0 0 0 0 0 0 
0 0 0 9.60393e-10 0 0 0 0 9.68503e-10 
0 0 0 2.77675e-09 0 0 0 0 1.85015e-09 
2.17339e-09 2.46147e-09 7.38007e-07 3.52434e-09 0 0 0 6.63288e-07 2.28945e-09 
0 0 0 6.41404e-10 0 2.71648e-09 0 0 0 
9.03316e-10 1.99506e-09 0 2.56882e-10 0 0 0 0 0 
0 0 0 0 0 0 0 0 8.70446e-10 
0 0 0 0 0 0 0 0 0 
0 0 0 9.82997e-07 1.08414e-06 0 0 0 0 
0 0 0 0 0 0 0 0 0 
0 0 0 0 0 0 0 0 0 
0 0 0 0 0 0 0 0 0 
0 0 0 0 0 0 0 0 0 
0 7.43503e-10 0 0 0 7.08036e-07 2.08301e-09 0 1.81563e-09 
0 0 4.07512e-09 1.06202e-09 0 0 0 0 2.19365e-09 
2.13345e-09 0 0 0 0 6.71981e-07 2.00248e-09 1.16413e-09 1.59765e-09 
0 0 0 0 0 0 0 0 0 
6.3548e-10 0 0 0 0 0 4.01647e-09 0 5.73444e-10 
0 0 0 0 0 0 0 0 0 
0 0 0 0 0 9.4932e-07 0 0 3.99354e-09 
1.73467e-09 0 0 0 0 6.67261e-10 0 0 7.66597e-07 
0 0 1.53767e-09 0 0 0 0 0 0 
0 0 0 0 0 0 0 0 0 
0 0 0 0 0 0 0 0 0 
0 0 0 0 0 0 1.46815e-09 0 1.07011e-09 
0 0 0 0 7.4363e-07 0 2.22299e-09 0 3.11779e-09 
0 0 0 4.01526e-09 0 0 0 0 0 
2.15049e-09 0 4.86488e-11 0 0 0 0 0 0 
0 0 0 0 0 0 0 6.80455e-07 0 
0 1.82621e-09 2.91681e-10 0 0 0 0 0 0 
0 0 0 1.24429e-09 0 0 0 0 0 
2.36173e-09 3.60679e-09 0 0 0 0 0 0 0 
0 7.70121e-07 0 0 0 0 0 0 0 
0 0 0 0 0 0 0 0 0 
0 0 0 0 0 0 0 0 0 
0 0 0 0 0 6.50018e-09 6.95899e-07 3.3093e-09 0 
4.11156e-09 0 0 1.89855e-09 0 0 0 0 1.63827e-09 
0 0 3.70696e-09 6.64481e-07 9.59443e-10 1.07779e-09 0 1.64437e-09 0 
0 0 1.34281e-09 0 1.8092e-09 0 1.02708e-09 0 0 
0 0 2.30513e-09 7.6328e-07 8.22848e-09 0 0 0 0 
1.91492e-09 0 7.65395e-09 0 7.57853e-10 0 0 1.02061e-09 1.13446e-09 
0 0 1.35077e-09 0 0 0 0 4.28979e-09 1.16647e-09 
0 6.68373e-07 3.81635e-09 1.95386e-09 0 1.01804e-09 0 0 0 
0 0 0 3.17996e-09 0 0 0 0 0 
0 0 0 0 0 0 0 0 0 
0 0 0 0 0 0 0 0 0 
0 0 0 0 0 0 3.03975e-09 0 0 
0 0 0 3.77453e-10 0 0 6.2324e-10 0 2.5186e-09 
0 0 0 0 0 1.02062e-08 0 1.73455e-09 0 
6.71982e-07 0 2.37549e-09 0 0 3.0367e-09 0 0 0 
0 0 0 0 0 7.66047e-07 0 1.5647e-09 0 
0 0 0 4.43e-09 0 0 2.6159e-09 1.38907e-09 0 
0 4.01476e-10 0 0 0 0 0 0 0 
0 2.76019e-09 0 1.43866e-09 0 0 0 0 0 
0 0 0 0 2.74404e-09 0 0 0 0 
0 0 0 0 0 0 0 0 0 
0 0 0 0 0 0 0 0 0 
0 0 0 0 0 0 0 0 0 
0 1.48871e-09 0 0 0 0 0 0 6.74513e-07 
0 0 1.96476e-09 2.16852e-09 1.12538e-09 0 0 3.95485e-09 0 
0 0 0 0 0 0 6.62039e-07 0 0 
0 0 0 1.47627e-09 0 0 0 0 0 
0 0 0 0 0 9.63837e-07 1.67504e-09 0 0 
0 0 3.06595e-09 0 6.55564e-07 0 0 0 0 
0 1.82286e-09 2.76024e-09 0 0 0 0 0 0 
0 0 4.81354e-09 0 0 0 0 9.17495e-10 0 
0 0 0 0 0 0 0 0 0 
0 0 0 0 0 0 0 0 0 
0 0 0 0 0 0 0 0 0 
0 0 0 0 0 0 0 0 0 
0 0 0 0 0 0 0 0 0 
0 7.16552e-10 0 1.29323e-09 0 0 0 0 0 
1.69313e-09 1.02831e-09 0 0 0 0 2.00171e-09 0 0 
0 0 0 0 0 0 0 0 0 
0 0 0 0 0 4.14123e-09 2.72558e-09 0 0 
0 0 0 0 0 0 9.97965e-10 0 0 
3.36181e-09 0 0 5.13954e-09 8.23365e-07 0 0 0 0 
0 0 0 0 0 0 0 0 0 
0 0 0 0 0 0 0 0 0 
0 0 0 0 0 0 0 0 0 
0 9.96916e-10 0 0 0 0 0 4.83814e-10 0 
0 0 0 2.39157e-09 0 0 0 0 0 
0 0 1.69675e-09 0 0 3.44721e-09 2.71896e-09 0 2.51168e-09 
0 1.71448e-09 1.37104e-09 0 0 0 0 0 0 
0 0 0 0 0 0 0 1.00374e-06 9.76232e-09 
0 0 0 0 2.10005e-09 0 0 0 2.64406e-09 
0 5.65853e-10 0 2.49709e-09 0 0 0 0 0 
0 0 3.74552e-09 0 9.82893e-07 0 0 0 0 
0 0 0 0 0 0 0 0 0 
0 0 0 0 0 0 0 0 0 
0 0 0 0 0 0 0 0 1.75375e-09 
6.68561e-09 0 1.34541e-09 0 0 0 0 0 6.51318e-07 
4.28193e-09 0 0 1.77275e-09 0 0 2.15441e-09 0 5.73049e-10 
0 0 0 0 0 1.12864e-09 0 6.72141e-07 0 
0 0 0 0 0 0 0 0 0 
7.22493e-10 0 0 0 2.71712e-09 0 0 0 9.42535e-07 
0 0 0 0 7.48264e-07 0 0 5.19051e-11 0 
0 0 0 0 0 0 0 1.69031e-09 0 
0 6.77743e-07 1.37979e-09 0 0 9.19334e-07 0 0 0 
1.09097e-09 0 0 0 0 0 0 0 0 
0 0 0 0 0 0 0 0 0 
0 0 0 0 0 0 0 0 0 
0 0 0 6.5034e-10 1.88472e-10 0 1.3185e-09 0 0 
2.84874e-09 2.02743e-09 0 1.25965e-09 0 0 0 0 0 
0 0 0 0 0 0 0 0 8.75246e-10 
0 1.30516e-09 2.59508e-09 0 0 2.38407e-09 0 0 0 
1.21011e-09 0 0 2.05342e-09 0 1.06576e-09 1.48278e-09 0 0 
6.29495e-09 0 0 9.49899e-07 0 1.45833e-09 0 3.75346e-09 0 
0 4.41388e-09 0 1.9056e-09 3.56705e-09 0 6.65649e-07 0 0 
1.69773e-09 0 3.99204e-09 1.51388e-09 3.72474e-09 0 0 0 0 
0 0 5.17736e-10 0 0 0 0 0 0 
0 0 0 0 0 0 0 0 0 
0 0 0 0 0 0 0 0 0 
0 5.45942e-09 6.77225e-07 5.58081e-09 0 5.97997e-10 0 0 0 
0 0 3.15982e-09 0 0 0 6.33943e-10 1.13684e-09 6.52229e-07 
0 1.29547e-09 0 0 0 0 0 0 0 
0 0 6.97149e-09 7.38518e-07 0 3.54491e-09 0 1.74075e-09 0 
0 1.72501e-09 0 1.61991e-09 0 0 0 0 0 
0 0 1.38766e-09 0 9.1425e-07 0 0 4.17514e-09 0 
6.97517e-07 0 0 6.86634e-07 4.71362e-09 0 0 4.67228e-09 2.96089e-09 
0 2.2106e-09 3.81662e-09 0 0 0 0 0 0 
0 6.46544e-10 0 0 0 0 0 0 0 
0 0 0 0 0 0 0 0 0 
0 0 0 0 0 0 3.01856e-10 0 0 
0 0 0 0 0 0 0 0 0 
0 0 0 0 0 0 0 0 0 
9.85736e-10 0 0 0 4.09217e-10 0 0 0 0 
1.06676e-09 0 0 0 0 0 7.6695e-07 0 6.28035e-10 
0 0 0 0 0 0 0 0 0 
0 0 0 0 0 0 0 6.40195e-10 0 
0 0 0 0 4.10195e-09 0 6.08756e-09 0 0 
0 0 0 0 0 5.16255e-09 4.63309e-09 0 0 
0 0 0 0 0 0 0 0 0 
0 0 0 0 0 0 0 0 0 
0 0 0 0 0 0 0 0 0 
0 0 0 0 0 3.19986e-09 0 7.5191e-10 0 
0 5.82567e-10 2.8525e-09 9.1784e-10 0 0 0 0 9.50711e-10 
1.12858e-10 0 0 0 0 0 0 0 0 
0 0 2.39084e-09 1.21313e-09 0 0 0 1.20505e-09 2.80282e-09 
3.0593e-09 0 0 0 6.80024e-07 0 0 0 0 
0 0 1.45913e-09 0 0 0 0 0 0 
0 0 7.42589e-10 0 0 0 0 6.23155e-09 0 
1.06266e-09 0 4.27455e-09 0 0 7.79074e-07 0 0 3.99871e-10 
0 0 0 0 0 0 0 0 0 
0 0 0 0 0 0 0 0 0 
0 0 0 0 0 0 0 0 0 
1.22106e-09 0 0 8.75982e-07 8.93353e-07 0 0 2.2947e-10 0 
0 0 0 6.10696e-09 0 0 0 0 0 
2.16205e-09 0 0 1.76719e-09 0 0 0 0 0 
0 0 0 0 0 0 0 8.78188e-07 1.25775e-09 
0 0 0 0 4.66052e-09 1.69913e-09 0 0 6.75072e-07 
0 1.27986e-09 0 0 6.60907e-07 0 0 0 0 
0 0 0 2.40962e-09 1.57751e-09 0 3.40937e-09 0 0 
0 0 6.84433e-07 0 0 0 0 7.67321e-07 0 
0 0 0 0 0 0 0 0 0 
0 0 0 0 0 0 0 0 0 
0 0 0 0 0 0 0 0 0 
0 1.53989e-09 0 0 0 0 5.71101e-09 0 0 
1.96909e-09 1.5031e-09 0 0 0 6.44707e-07 7.53436e-09 2.87251e-09 8.66699e-10 
0 6.7295e-10 0 1.77758e-09 6.51342e-07 2.7771e-09 1.88038e-09 0 0 
5.39699e-10 0 3.54099e-10 0 0 0 0 0 0 
0 0 0 0 4.8924e-09 0 0 0 9.5088e-10 
0 5.3534e-09 0 0 0 0 0 0 0 
1.76514e-09 0 6.59419e-07 0 0 0 2.37882e-09 4.29875e-10 0 
6.83887e-07 0 0 2.7736e-09 0 1.28819e-09 0 0 0 
0 0 0 0 0 0 0 0 0 
0 0 0 0 0 0 0 0 0 
0 0 0 0 0 0 0 0 0 
0 0 8.4662e-10 1.01055e-09 1.92359e-09 0 0 0 0 
0 0 1.39259e-09 4.67873e-10 0 0 0 0 1.77539e-09 
0 0 0 0 0 3.62432e-09 0 0 0 
0 8.23733e-10 0 0 0 0 0 9.92758e-07 1.15629e-06 
1.04972e-06 0 0 1.5674e-09 7.74617e-07 0 0 3.18004e-09 4.25619e-09 
0 0 3.15803e-09 0 0 0 0 0 0 
0 0 2.10653e-09 2.88865e-09 0 5.63074e-10 3.22239e-09 1.11165e-09 0 
1.36914e-09 0 0 0 0 7.26093e-10 0 1.56049e-09 7.45239e-10 
3.27352e-09 0 1.03549e-09 0 0 0 0 0 0 
0 0 0 0 0 0 0 0 0 
0 0 0 0 0 0 0 0 0 
0 0 0 0 0 5.37436e-09 0 0 6.96851e-09 
8.75136e-07 0 0 1.28682e-09 0 0 0 0 0 
0 0 0 0 0 9.99723e-10 1.51959e-09 0 0 
0 0 0 0 0 0 0 0 0 
1.83191e-09 0 0 0 0 0 5.5333e-09 7.35006e-07 0 
0 3.67492e-09 0 0 0 0 0 0 0 
0 4.8607e-10 0 0 0 0 0 0 6.62884e-07 
1.4476e-09 0 0 0 2.83297e-09 1.16666e-09 0 0 0 
0 0 7.14022e-11 0 0 0 0 0 0 
0 0 0 0 0 0 0 0 0 
0 0 0 0 0 0 0 0 0 
0 0 0 0 0 0 0 0 4.12313e-09 
0 8.65015e-07 0 0 0 0 0 1.17403e-09 0 
8.71055e-10 0 0 0 0 0 0 0 1.04371e-09 
0 0 0 0 0 0 0 0 0 
0 2.02782e-09 0 2.09844e-09 0 7.41027e-07 0 0 3.8194e-09 
0 0 0 0 3.58154e-10 0 0 0 0 
0 0 0 0 0 0 0 0 0 
0 0 0 0 0 2.11584e-09 0 0 0 
0 3.06684e-10 0 0 0 0 0 0 0 
0 0 0 0 0 0 0 0 0 
0 0 0 0 0 0 0 0 0 
0 0 0 0 1.11662e-09 0 1.13146e-09 0 0 
0 0 1.78197e-08 0 2.50252e-09 0 0 0 0 
0 0 0 0 0 0 0 0 0 
0 0 0 1.75517e-09 0 0 0 2.30197e-09 0 
4.45354e-09 7.10036e-07 2.96515e-09 0 0 0 6.98546e-09 3.58273e-09 5.34363e-09 
0 0 0 0 8.65304e-07 0 0 0 0 
0 0 0 0 0 0 0 3.08661e-10 0 
1.09754e-09 0 1.58488e-09 0 0 1.88937e-09 2.37587e-09 0 1.07194e-09 
1.09887e-09 3.49622e-10 0 0 0 0 0 0 0 
0 0 0 0 0 0 0 0 0 
0 0 0 0 0 0 0 0 0 
0 0 0 0 0 0 0 0 0 
0 0 1.67299e-09 0 0 0 6.81395e-10 0 0 
0 0 0 0 0 0 0 0 0 
0 0 0 0 0 2.94536e-09 6.4696e-07 5.42363e-09 1.26994e-09 
0 3.89744e-09 0 0 0 1.89296e-09 0 2.29827e-09 0 
0 0 0 0 2.4078e-09 8.61441e-07 0 3.52211e-09 1.61331e-09 
0 0 0 0 0 0 0 0 0 
0 0 0 0 3.69222e-10 6.36196e-10 0 0 2.39713e-09 
0 0 0 0 0 0 0 0 0 
0 0 0 0 0 0 0 0 0 
0 0 0 0 0 0 0 0 0 
0 0 0 0 0 0 0 4.06973e-09 0 
0 1.46811e-09 0 1.02971e-09 0 0 0 0 1.30989e-09 
0 0 0 0 0 0 0 0 0 
0 0 0 0 0 0 0 3.20485e-09 0 
0 0 0 2.13478e-09 0 0 1.47377e-11 0 0 
0 0 0 0 0 0 0 0 0 
0 0 0 0 0 0 0 0 0 
0 0 0 0 0 0 1.62895e-09 0 6.52595e-07 
0 1.89667e-09 0 0 0 0 0 0 0 
0 0 0 0 0 0 0 0 0 
0 0 0 0 0 0 0 0 0 
0 0 0 0 0 0 0 0 6.44295e-07 
0 0 8.53274e-10 0 2.20711e-09 3.39109e-09 0 4.45576e-10 9.33655e-10 
1.01118e-09 0 0 0 0 0 0 0 0 
0 0 0 0 0 0 0 0 6.747e-10 
0 0 0 0 7.61239e-10 0 0 5.82749e-10 0 
0 0 0 0 0 1.34613e-09 0 5.05769e-09 0 
1.8973e-09 0 0 0 4.12051e-09 0 6.63737e-10 8.32816e-10 0 
0 0 0 0 0 0 0 0 3.53219e-09 
2.018e-09 0 0 0 0 1.49956e-09 0 0 0 
0 0 0 0 0 0 0 0 0 
0 0 0 0 0 0 0 0 0 
0 0 0 0 0 0 0 0 2.01582e-09 
1.39094e-09 0 3.43588e-10 0 0 0 1.00662e-09 0 0 
0 0 0 0 0 0 0 0 0 
0 0 0 0 1.11994e-09 0 0 0 9.62065e-10 
0 0 0 0 0 7.44268e-10 0 0 0 
0 0 0 0 0 0 0 0 0 
0 0 2.38728e-09 0 1.31394e-09 6.82794e-07 0 2.95337e-09 0 
0 0 0 0 0 0 0 0 0 
0 0 0 0 0 0 0 1.38736e-09 0 
0 0 0 0 0 0 0 0 0 
0 0 0 0 0 0 0 0 0 
0 0 0 0 0 0 0 0 0 
0 2.18216e-09 1.64568e-09 1.19603e-09 0 0 0 3.14093e-09 6.59508e-07 
4.59892e-09 0 0 0 0 0 0 0 0 
4.88611e-10 2.12121e-10 0 0 3.35814e-10 1.02869e-09 0 0 0 
0 0 0 0 0 0 0 4.33608e-10 0 
0 0 0 0 0 0 0 0 1.39513e-09 
0 0 2.57736e-09 7.35713e-10 0 0 0 0 3.2382e-09 
0 0 0 0 0 0 0 0 0 
1.20498e-09 0 0 0 0 1.99181e-09 0 0 0 
3.69346e-11 0 0 0 0 0 0 0 0 
0 0 0 0 0 0 0 0 0 
0 0 0 0 0 0 0 0 0 
0 6.97976e-10 0 0 8.87024e-10 0 0 0 0 
0 0 4.28537e-09 0 6.73195e-07 0 0 1.48576e-09 0 
0 0 0 0 0 1.87246e-10 0 8.70501e-10 0 
0 0 0 0 9.3102e-10 0 0 2.58231e-09 0 
0 0 0 0 0 0 0 0 0 
0 6.27491e-10 0 0 0 6.79212e-07 6.41959e-09 0 0 
4.07304e-09 0 0 0 0 0 0 0 0 
0 7.19108e-10 2.11499e-09 0 6.52572e-07 4.19297e-09 0 0 2.66452e-09 
0 1.74899e-09 0 0 0 0 0 0 0 
0 0 0 0 0 0 0 0 0 
0 0 0 0 0 0 0 0 0 
0 0 0 0 0 0 0 0 0 
0 0 0 0 0 0 0 0 0 
0 0 0 0 3.73824e-09 0 0 2.59366e-09 0 
0 0 2.79217e-09 0 0 0 2.68946e-09 6.45422e-07 0 
4.49548e-09 0 0 0 0 0 0 0 0 
6.47157e-07 4.47758e-09 0 1.33792e-09 0 0 0 0 0 
1.48457e-08 6.63058e-07 0 2.17929e-09 0 0 0 0 0 
0 0 1.08557e-09 0 0 0 0 0 0 
0 0 8.56563e-07 0 0 0 0 0 0 
0 0 0 0 0 0 0 0 0 
0 0 0 0 0 0 0 0 0 
0 0 0 0 0 0 0 0 0 
0 0 0 0 0 0 4.87378e-09 0 0 
1.35888e-09 2.06206e-10 0 0 7.56926e-10 0 6.70889e-07 0 3.64064e-09 
0 0 0 0 0 0 2.30713e-09 5.15999e-10 0 
0 0 5.12494e-10 0 0 0 0 0 0 
0 0 1.39363e-09 0 0 0 3.39621e-09 0 0 
0 0 0 2.68692e-09 0 0 0 0 0 
0 0 0 0 0 0 0 0 8.43084e-10 
0 2.73205e-09 0 8.56764e-07 5.13439e-09 0 0 0 0 
0 0 0 0 0 0 0 0 0 
0 0 0 0 0 0 0 0 0 
0 0 0 0 0 0 0 0 1.22415e-09 
0 1.93099e-09 0 0 0 7.67798e-09 6.95502e-07 2.76064e-09 2.75873e-09 
9.42068e-10 2.65103e-09 0 0 0 0 0 0 0 
0 0 0 8.14087e-07 0 1.18189e-09 0 1.9191e-09 0 
0 0 2.12876e-10 0 0 0 0 0 0 
2.23616e-09 1.28314e-13 0 0 0 0 0 0 0 
6.92273e-10 0 0 0 0 0 1.31786e-10 0 0 
0 0 0 0 0 0 1.86287e-09 0 0 
0 0 0 0 0 0 1.23249e-09 0 3.74424e-10 
0 0 0 0 0 0 0 0 0 
0 0 0 0 0 0 0 0 0 
0 0 0 0 0 0 3.84668e-09 1.09313e-09 4.66101e-09 
0 1.10263e-09 0 2.62652e-09 8.11455e-07 0 0 0 3.08028e-09 
5.68841e-10 0 0 0 0 0 0 0 0 
0 0 7.35665e-07 0 2.24534e-09 7.87325e-07 9.10269e-09 0 0 