# vtk DataFile Version 5.1
vtk output
ASCII
DATASET STRUCTURED_POINTS
DIMENSIONS 100 100 1
SPACING 1 1 1
ORIGIN 0 0 0
POINT_DATA 10000
FIELD FieldData 6
feature_1 1 10000 float
0 0 0 0 0 0 0 0 0 
0 0 0 0 0 0 0 0 0 
0 0 0 0 0 0 0 0 0 
0 0 0 0 0 0 0 0 0 
0 0 0 0 0 0 0 0 0 
0 0 0 0 0 0 0 0 0 
0 0 0 0 0 0 0 0 0 
0 0 0 0 0 0 0 0 0 
0 0 0 0 0 0 0 0 0 
0 0 0 0 0 0 0 0 0 
0 0 0 0 0 0 0 0 0 
0 0 0 0 0 0 0 0 0 
0 0 0 0 0 0 0 0 0 
0 0 0 0 0 0 0 0 0 
0 0 0 0 0 0 0 0 0 
0 0 0 0 0 0 0 0 0 
0 0 0 0 0 0 0 0 0 
0 0 0 0 0 0 0 0 0 
0 0 0 0 0 0 0 0 0 
0 0 0 0 0 0 0 0 0 
0 0 0 0 0 0 0 0 0 
0 0 0 0 0 0 0 0 0 
0 0 0 0 0 0 0 0 0 
0 0 0 0 0 0 0 0 0 
0 0 0 0 0 0 0 0 0 
0 0 0 0 0 0 0 0 0 
0 0 0 0 0 0 0 0 0 
0 0 0 0 0 0 0 0 0 
0 0 0 0 0 0 0 0 0 
0 0 0 0 0 0 0 0 0 
0 0 0 0 0 0 0 0 0 
0 0 0 0 0 0 0 0 0 
0 0 0 0 0 0 0 0 0 
0 0 0 0 0 0 0 0 0 
0 0 0 0 0 0 0 0 0 
0 0 0 0 0 0 0 0 0 
0 0 0 0 0 0 0 0 0 
0 0 0 0 0 0 0 0 0 
0 0 0 0 0 0 0 0 0 
0 0 0 0 0 0 0 0 0 
0 0 0 0 0 0 0 0 0 
0 0 0 0 0 0 0 0 0 
0 0 0 0 0 0 0 0 0 
0 0 0 0 0 0 0 0 0 
0 0 0 0 0 0 0 0 0 
0 0 0 0 0 0 0 0 0 
0 0 0 0 0 0 0 0 0 
0 0 0 0 0 0 0 0 0 
0 0 0 0 0 0 0 0 0 
0 0 0 0 0 0 0 0 0 
0 0 0 0 0 0 0 0 0 
0 0 0 0 0 0 0 0 0 
0 0 0 0 0 0 0 0 0 
0 0 0 0 0 0 0 0 0 
0 0 0 0 0 0 0 0 0 
0 0 0 0 0 0 0 0 0 
0 0 0 0 0 0 0 0 0 
0 0 0 0 0 0 0 0 0 
0 0 0 0 0 0 0 0 0 
0 0 0 0 0 0 0 0 0 
0 0 0 0 0 0 0 0 0 
0 0 0 0 0 0 0 0 0 
0 0 0 0 0 0 0 0 0 
0 0 0 0 0 0 0 0 0 
0 0 0 0 0 0 0 0 0 
0 0 0 0 0 0 0 0 0 
0 0 0 0 0 0 0 0 0 
0 0 0 0 0 0 0 0 0 
0 0 0 0 0 0 0 0 0 
0 0 0 0 0 0 0 0 0 
0 0 0 0 0 0 0 0 0 
0 0 0 0 0 0 0 0 0 
0 0 0 0 0 0 0 0 0 
0 0 0 0 0 0 0 0 0 
0 0 0 0 0 0 0 0 0 
0 0 0 0 0 0 0 0 0 
0 0 0 0 0 0 0 0 0 
0 0 0 0 0 0 0 0 0 
0 0 0 0 0 0 0 0 0 
0 0 0 0 0 0 0 0 0 
0 0 0 0 0 0 0 0 0 
0 0 0 0 0 0 0 0 0 
0 0 0 0 0 0 0 0 0 
0 0 0 0 0 0 0 0 0 
0 0 0 0 0 0 0 0 0 
0 0 0 0 0 0 0 0 0 
0 0 0 0 0 0 0 0 0 
0 0 0 0 0 0 0 0 0 
0 0 0 0 0 0 0 0 0 
0 0 0 0 0 0 0 0 0 
0 0 0 0 0 0 0 0 0 
0 0 0 0 0 0 0 0 0 
0 0 0 0 0 0 0 0 0 
0 0 0 0 0 0 0 0 0 
0 0 0 0 0 0 0 0 0 
0 0 0 0 0 0 0 0 0 
0 0 0 0 0 0 0 0 0 
0 0 0 0 0 0 0 0 0 
0 0 0 0 0 0 0 0 0 
0 0 0 0 0 0 0 0 0 
0 0 0 0 0 0 0 0 0 
0 0 0 0 0 0 0 0 0 
0 0 0 0 0 0 0 0 0 
0 3.18273e-11 0 0 0 0 0 0 0 
0 0 0 0 0 0 0 6.32551e-10 0 
0 0 0 0 0 0 0 0 0 
0 0 0 0 0 0 0 0 0 
0 0 0 0 0 0 0 0 0 
0 0 0 0 0 0 0 0 0 
0 0 0 0 0 0 0 0 0 
0 0 0 0 0 0 0 0 0 
0 0 0 0 0 0 0 0 0 
0 0 0 0 0 0 0 0 0 
0 0 0 0 0 0 0 0 0 
0 0 0 0 0 0 0 0 0 
0 0 5.52229e-12 0 0 0 0 0 0 
0 1.77948e-09 0 0 0 3.03403e-11 0 0 0 
0 0 0 0 0 0 0 2.29011e-09 0 
0 0 0 0 0 0 0 0 0 
0 0 0 0 0 5.25385e-10 0 0 0 
0 0 0 0 0 0 0 0 0 
0 0 0 0 0 0 0 0 0 
0 0 0 0 0 0 0 0 0 
0 0 0 0 0 0 0 0 0 
0 0 0 0 0 0 0 0 0 
0 0 0 0 0 0 0 0 0 
0 0 0 0 0 0 0 0 1.71771e-09 
0 0 0 0 0 0 0 0 0 
0 0 0 0 0 0 0 0 0 
0 0 0 0 0 0 0 0 0 
0 0 0 0 3.86158e-10 0 0 0 0 
0 0 0 0 0 0 0 0 0 
0 0 0 0 0 0 0 0 0 
0 0 0 0 0 0 0 0 0 
0 0 0 0 0 0 0 0 0 
0 0 0 0 0 0 0 0 0 
0 0 0 0 0 0 0 0 0 
0 0 0 0 0 0 0 0 0 
0 0 0 7.84748e-07 6.69022e-09 2.20054e-09 0 0 0 
0 0 0 0 0 0 0 1.34539e-09 6.40449e-07 
1.36314e-09 0 0 0 0 0 0 0 0 
0 0 0 0 0 0 0 5.00479e-10 0 
0 0 0 0 0 0 0 0 0 
0 0 0 0 0 0 0 0 0 
0 0 0 0 0 0 0 0 0 
0 0 0 0 0 0 0 0 0 
0 0 0 0 0 0 0 0 0 
0 0 0 0 0 0 5.62202e-10 0 0 
0 0 0 1.29719e-09 9.759e-11 0 0 0 0 
3.1865e-09 0 0 8.24759e-07 0 6.45758e-09 0 0 0 
8.60755e-10 0 0 0 0 6.34793e-10 0 0 0 
0 0 1.88974e-09 1.14885e-09 0 0 0 0 0 
0 0 0 0 0 0 0 0 0 
0 1.56736e-09 0 0 0 0 0 0 0 
0 0 0 0 0 0 0 0 0 
0 0 0 0 0 0 0 0 0 
0 0 0 0 0 0 0 0 0 
0 0 0 0 0 0 0 0 0 
0 0 0 0 4.42401e-09 6.42388e-07 0 1.56147e-09 0 
0 0 0 1.41707e-09 0 8.13825e-09 0 0 1.13906e-09 
0 0 0 0 0 0 0 0 0 
0 0 0 0 0 0 0 0 6.07221e-10 
0 0 0 0 0 0 0 0 0 
0 0 0 0 0 0 1.49928e-09 0 0 
6.41941e-07 1.46868e-09 0 0 0 0 0 0 0 
0 0 0 0 0 0 0 0 0 
0 0 0 0 0 0 0 0 0 
0 0 0 0 0 0 0 0 0 
0 0 0 0 0 0 0 0 0 
0 0 0 0 0 0 0 0 0 
8.48466e-10 0 0 2.25038e-12 0 3.92798e-09 6.42092e-07 4.82735e-09 2.74037e-09 
0 0 0 0 0 0 7.89083e-07 0 0 
6.55511e-10 0 0 0 0 0 0 0 0 
0 0 1.24597e-09 0 0 0 0 0 0 
0 0 0 0 9.5068e-10 0 0 0 0 
0 4.1401e-10 0 0 0 0 0 0 0 
0 0 0 0 0 0 0 0 0 
0 0 0 0 0 0 0 0 0 
0 0 0 0 0 0 0 0 0 
0 0 0 0 0 0 0 0 0 
0 0 0 0 0 0 1.79305e-09 0 0 
0 0 0 0 0 0 2.33534e-09 0 0 
0 0 0 0 0 7.34109e-07 1.24953e-08 0 0 
0 0 6.83692e-07 0 0 1.0894e-09 0 0 0 
0 0 0 0 1.45634e-09 0 1.78174e-09 0 2.0618e-09 
0 0 0 8.41876e-10 0 0 0 0 0 
0 0 0 0 0 0 0 0 0 
9.78569e-11 0 0 0 0 0 0 0 0 
0 0 0 0 0 0 0 0 0 
0 0 0 0 0 0 0 0 0 
0 0 0 0 0 0 0 0 0 
0 0 0 0 0 6.81664e-10 0 5.25413e-09 0 
1.55062e-09 0 0 4.49043e-10 0 0 0 0 2.44504e-09 
0 0 0 0 0 0 0 0 0 
0 0 0 0 0 0 1.1864e-09 3.33609e-10 3.71921e-10 
0 0 0 0 0 0 0 7.1332e-07 0 
7.1306e-07 8.50017e-09 0 0 0 0 0 0 6.61935e-07 
0 0 0 0 0 0 0 0 0 
0 0 0 0 0 0 0 0 0 
0 0 0 0 0 0 0 0 0 
0 0 0 0 0 0 0 0 0 
0 0 0 0 0 0 0 0 0 
0 0 0 0 0 3.8198e-09 0 1.32775e-09 0 
0 0 0 0 0 0 0 0 0 
0 1.35706e-09 0 4.64749e-09 5.54484e-09 0 0 0 0 
0 0 0 0 0 0 1.69341e-09 0 0 
0 0 0 0 0 1.38895e-09 0 0 0 
0 0 2.48848e-09 0 0 3.12605e-10 0 0 0 
0 3.93469e-11 1.98917e-09 2.45004e-09 1.6286e-09 0 0 0 0 
0 0 0 0 0 0 0 0 0 
0 0 0 0 0 0 0 0 0 
0 0 0 0 0 0 0 0 0 
0 0 0 0 0 0 0 0 0 
0 0 0 0 0 0 0 2.2021e-09 0 
3.98856e-09 6.4503e-07 7.3623e-10 0 0 0 0 0 0 
0 0 0 0 6.46048e-07 0 0 0 0 
0 8.89342e-07 9.05636e-07 0 2.31352e-09 7.13012e-07 0 0 0 
0 0 0 0 0 0 0 1.73845e-09 0 
0 1.67677e-09 9.3292e-10 0 0 1.28122e-09 0 0 0 
2.04806e-09 0 0 1.15716e-09 0 0 0 0 0 
0 0 0 0 0 0 0 8.24877e-10 0 
0 0 0 0 0 0 0 0 0 
0 0 0 0 0 0 0 0 0 
0 0 0 0 0 0 0 0 0 
0 0 0 6.98975e-10 2.25826e-09 4.53187e-09 6.42389e-07 5.53325e-09 0 
0 2.79236e-09 3.55005e-09 0 0 0 0 0 0 
0 0 0 0 0 0 0 0 1.68523e-09 
0 0 0 0 0 0 1.98976e-09 0 1.22369e-09 
0 0 0 0 0 0 0 0 0 
0 0 3.13334e-10 0 0 0 0 0 0 
0 0 9.47123e-10 0 0 0 0 0 0 
4.3864e-10 0 0 0 0 0 1.45615e-09 1.42087e-09 0 
0 0 0 0 0 0 0 0 0 
0 0 0 0 0 0 0 0 0 
0 0 0 0 0 0 0 0 0 
0 0 0 0 0 6.8756e-12 0 0 5.25528e-09 
2.14975e-09 0 1.12109e-09 0 0 6.0613e-10 0 0 0 
0 6.13978e-10 0 0 0 0 0 0 6.35141e-10 
1.84423e-09 0 0 0 0 0 0 3.55503e-09 0 
1.23334e-09 0 0 0 0 2.32669e-10 0 0 0 
0 0 0 0 0 1.41308e-09 0 0 0 
0 0 0 0 0 0 0 0 1.58216e-09 
0 4.92412e-10 0 0 0 0 0 1.32228e-09 0 
0 0 0 0 0 0 0 0 0 
0 0 0 0 0 0 0 0 0 
0 0 0 0 0 0 0 0 0 
0 0 0 0 1.42024e-09 0 0 0 0 
0 0 0 0 1.08296e-09 0 0 0 0 
0 0 0 0 0 0 8.88526e-10 9.65212e-10 0 
5.85766e-10 0 0 0 0 2.00975e-09 0 0 0 
0 3.43434e-10 1.48958e-09 0 0 0 0 0 0 
0 0 0 0 0 0 0 4.79229e-09 0 
1.26138e-10 0 0 0 0 1.63393e-09 0 0 7.67373e-10 
0 0 0 0 0 0 0 0 0 
7.13141e-07 0 0 1.64038e-09 0 0 0 0 0 
0 0 0 0 0 0 0 0 0 
0 0 0 0 0 0 0 0 0 
0 0 0 0 0 1.37391e-10 0 0 0 
1.01809e-09 7.15509e-10 0 3.77405e-10 0 0 0 9.52467e-10 0 
0 0 0 3.84927e-10 0 0 7.67083e-10 0 0 
5.87673e-10 0 0 0 1.5816e-09 0 0 8.68643e-07 8.65821e-07 
0 0 0 0 0 0 0 0 0 
3.3822e-10 0 0 0 0 0 0 0 6.42545e-07 
0 0 0 4.46322e-10 0 0 0 0 0 
0 6.50342e-07 7.86259e-09 0 0 0 0 0 0 
5.63141e-09 1.79062e-09 0 0 0 0 0 0 0 
0 0 0 0 0 0 0 0 0 
0 0 0 0 0 0 0 0 0 
6.70378e-10 0 0 0 0 0 0 1.43089e-09 0 
0 6.22435e-10 0 0 0 0 0 0 0 
1.70247e-09 0 0 0 0 7.6208e-10 0 0 0 
0 0 0 0 0 0 0 1.22467e-10 3.40873e-09 
0 0 2.27356e-09 0 2.79935e-10 1.10498e-09 6.41137e-07 1.98597e-09 0 
1.22916e-09 0 0 0 0 0 0 2.7405e-09 0 
0 0 0 0 0 0 4.77177e-09 0 0 
0 0 1.55413e-09 0 3.56091e-09 0 0 0 0 
1.13581e-09 0 7.19721e-07 1.83476e-09 0 2.90934e-10 0 0 0 
0 0 0 0 0 0 0 0 0 
0 0 0 0 0 0 0 0 0 
0 1.09804e-09 0 1.308e-09 1.45475e-09 0 0 1.18471e-09 0 
0 0 0 2.02878e-10 0 0 0 0 0 
0 0 2.83242e-09 0 1.21036e-09 0 1.17481e-09 0 0 
0 0 0 0 0 0 0 2.13919e-09 0 
4.42586e-09 1.67959e-11 0 0 2.39321e-09 0 7.16118e-10 2.61514e-09 0 
0 0 9.47072e-10 0 0 0 0 5.84275e-10 0 
5.03125e-10 0 1.925e-09 0 0 0 9.63598e-09 6.49341e-07 5.22405e-09 
0 0 0 0 0 0 0 6.44575e-10 0 
0 0 4.09023e-09 0 0 0 0 0 0 
0 0 0 0 0 0 0 0 0 
0 0 0 0 0 0 0 0 0 
0 0 0 0 0 0 0 0 0 
7.12067e-07 0 0 0 0 0 0 0 0 
0 0 4.27957e-09 6.42783e-07 0 0 1.87072e-09 0 6.93441e-07 
0 2.6873e-09 1.51582e-09 0 0 0 0 1.14252e-09 0 
0 0 0 0 0 0 0 0 0 
0 0 0 0 0 0 0 0 0 
0 0 1.36133e-09 0 0 0 0 0 3.4496e-09 
0 0 2.97712e-09 0 0 0 0 0 0 
0 0 0 3.13224e-09 0 0 1.25806e-09 0 0 
0 0 0 0 0 0 0 0 0 
0 0 0 0 0 0 0 0 0 
0 0 0 6.5468e-07 0 0 0 0 7.67711e-07 
0 0 0 0 0 0 0 0 0 
0 0 1.16977e-09 1.34088e-09 0 0 0 0 0 
0 0 6.99965e-07 0 0 3.78097e-09 0 0 0 
0 1.36465e-09 3.28758e-09 0 0 6.65642e-10 0 0 0 
1.08821e-09 0 0 0 0 0 0 0 3.58242e-10 
0 1.12026e-09 0 0 0 0 0 0 0 
0 0 0 0 0 6.51224e-07 0 0 0 
0 4.07039e-10 0 0 1.00522e-09 0 0 0 0 
0 0 0 0 0 0 0 0 0 
0 0 0 0 0 0 0 0 0 
0 0 1.82776e-09 3.64014e-09 0 0 0 0 0 
0 0 3.93718e-09 2.30084e-09 0 0 7.96587e-10 0 0 
0 0 0 0 0 0 0 0 0 
2.05519e-09 0 0 0 0 0 2.77662e-09 6.03107e-09 0 
0 6.02635e-09 6.98311e-07 0 0 0 0 0 0 
4.44887e-10 0 0 0 0 2.78642e-09 4.20308e-09 0 0 
0 0 0 0 0 0 1.7605e-09 0 0 
0 0 2.31063e-09 0 0 0 0 0 0 
0 0 0 0 0 6.6757e-07 0 0 0 
2.78549e-10 0 0 0 0 0 0 0 0 
0 0 0 0 0 0 0 0 0 
0 0 0 7.31419e-10 5.35858e-10 0 0 0 7.04479e-07 
9.35001e-09 0 7.35881e-07 4.30954e-09 2.42103e-09 0 0 0 0 
0 1.01786e-09 0 0 0 0 0 8.63569e-10 0 
0 1.16977e-09 1.36526e-09 0 0 0 0 0 0 
0 0 0 7.76059e-09 0 0 0 0 0 
0 0 0 0 1.28733e-09 0 6.54169e-07 4.87678e-09 2.97082e-09 
0 0 0 0 0 0 6.45969e-07 2.14216e-09 1.89323e-09 
0 0 6.99446e-09 3.5785e-09 2.60682e-09 0 0 0 4.18746e-10 
0 0 1.01354e-09 0 0 0 0 3.98532e-10 0 
0 0 0 0 0 0 0 0 0 
0 0 0 0 0 0 0 0 0 
0 0 0 0 0 0 2.57355e-09 2.59104e-09 0 
0 0 0 0 0 0 0 1.03177e-09 3.0142e-09 
0 0 0 0 0 0 0 0 0 
0 0 0 0 0 0 0 0 0 
6.95527e-07 0 0 7.17164e-07 4.70824e-09 0 0 0 0 
0 0 0 0 0 0 0 3.09903e-09 0 
0 0 0 1.93524e-09 1.53418e-09 0 4.69742e-09 0 3.62001e-09 
0 0 4.69298e-09 6.46185e-07 0 0 1.30128e-09 0 1.15842e-09 
0 0 0 0 2.34492e-09 0 0 0 0 
0 0 0 0 0 0 0 0 0 
0 0 0 0 0 0 0 0 0 
0 0 0 0 0 0 0 0 0 
0 0 0 1.81994e-09 1.22717e-09 0 1.84622e-09 3.27636e-09 2.95207e-10 
0 8.63819e-07 0 0 0 0 0 0 0 
0 0 0 0 0 0 0 7.14548e-07 0 
5.92917e-09 0 0 0 0 0 0 0 0 
0 0 0 9.29152e-10 1.71091e-09 0 1.84887e-09 4.15109e-09 0 
2.36949e-09 0 0 0 0 0 0 3.9891e-10 0 
0 0 0 0 0 0 0 9.47354e-10 0 
3.91443e-10 0 0 0 2.99642e-09 0 0 6.70776e-07 0 
0 0 0 0 0 0 0 0 0 
0 0 0 0 0 0 0 0 0 
0 0 0 0 0 0 0 0 0 
0 0 1.37393e-09 0 1.48136e-09 0 0 0 0 
3.81434e-09 1.55881e-09 8.76899e-07 0 0 0 0 0 4.14696e-10 
0 0 0 0 0 2.9267e-09 0 6.16365e-09 0 
0 0 3.08228e-09 3.0057e-09 0 0 0 0 0 
0 0 0 0 0 1.34346e-09 0 5.36142e-07 0 
0 3.50438e-09 0 0 0 0 2.67819e-09 3.3199e-09 0 
0 0 9.85628e-10 2.2985e-09 4.64214e-10 0 0 0 0 
0 0 0 0 0 0 1.89996e-09 0 0 
0 0 0 0 0 0 0 0 0 
0 0 0 0 0 0 0 0 0 
0 0 0 0 0 0 0 0 0 
0 0 0 0 0 0 0 0 0 
0 0 0 0 0 0 6.78622e-07 4.29041e-09 0 
0 7.10445e-10 0 0 0 0 0 0 0 
0 0 0 0 0 0 0 0 0 
0 0 0 0 0 0 0 0 5.64999e-09 
0 0 0 0 7.41304e-07 0 7.96248e-07 0 0 
0 0 0 0 0 0 0 0 0 
0 0 0 0 0 3.62287e-09 6.51675e-07 0 0 
0 0 0 0 0 0 0 0 0 
0 0 0 0 0 0 0 0 0 
0 0 0 0 0 0 0 0 0 
0 0 0 0 0 0 0 0 0 
2.31418e-09 1.59949e-09 0 0 7.4051e-10 4.78774e-09 1.37961e-09 4.80639e-09 8.85337e-10 
0 1.70445e-09 0 0 0 0 0 0 0 
8.90428e-07 9.04422e-07 0 3.85032e-09 0 5.70548e-10 0 0 4.85403e-09 
0 0 0 0 0 0 0 0 0 
4.59105e-10 1.77948e-09 2.04332e-09 0 0 0 0 3.85272e-09 0 
1.56463e-09 0 0 0 0 1.03242e-09 0 0 0 
1.22153e-10 0 0 0 0 0 2.6254e-09 2.44259e-09 0 
2.39286e-09 2.90183e-09 0 0 0 0 0 0 0 
0 0 0 0 0 0 0 0 0 
0 0 0 0 0 0 0 0 0 
0 0 0 0 0 0 0 0 0 
0 0 0 2.37934e-09 0 0 0 0 0 
0 5.49993e-10 0 0 0 0 0 0 0 
0 0 0 0 0 0 0 0 3.77475e-09 
0 0 2.2696e-09 0 3.77372e-09 0 0 0 0 
0 2.78127e-09 0 0 0 0 0 0 3.63752e-09 
0 0 0 7.28354e-07 0 1.59407e-09 0 0 0 
0 0 0 0 0 0 0 0 0 
0 0 0 0 0 0 0 0 0 
0 0 0 0 0 0 0 0 0 
0 0 0 0 0 0 0 0 0 
0 0 0 0 0 0 0 0 0 
0 0 0 3.80016e-09 7.07907e-07 0 9.1297e-09 0 0 
4.2695e-09 3.59678e-09 0 2.37919e-09 0 0 0 0 1.18977e-09 
0 0 0 0 0 0 0 0 0 
0 7.54468e-07 0 0 0 6.54011e-07 0 0 0 
0 7.62764e-10 0 0 0 0 0 0 0 
8.22644e-07 0 0 0 2.77844e-09 0 0 0 4.19387e-10 
0 0 0 0 0 0 0 0 0 
0 0 0 1.62216e-10 0 0 0 0 0 
0 0 0 0 0 0 0 0 0 
0 0 0 0 0 0 0 0 0 
0 0 0 6.71191e-10 0 0 0 0 0 
0 0 0 0 0 0 0 7.71122e-07 4.49825e-09 
0 0 0 6.49221e-07 0 0 1.41493e-09 0 0 
0 1.65975e-09 0 0 7.05084e-07 0 0 0 0 
0 0 1.07606e-08 0 0 0 4.40726e-09 0 0 
0 0 0 0 0 0 8.48074e-10 0 0 
0 0 9.59834e-10 0 7.40505e-07 6.72791e-09 0 0 0 
0 0 0 0 0 0 0 0 0 
0 0 0 0 0 0 0 0 0 
0 0 0 0 0 0 0 0 0 
0 0 0 0 0 0 0 0 0 
0 0 0 0 0 0 1.15603e-09 0 0 
0 0 0 0 2.88187e-10 0 0 0 5.51531e-09 
0 0 0 3.66104e-09 4.78579e-09 0 1.32291e-09 0 0 
0 0 4.64999e-10 0 0 0 0 9.79779e-10 0 
0 8.70757e-07 0 8.12377e-07 2.50233e-09 4.33213e-09 0 3.15311e-10 1.91294e-09 
1.43848e-09 0 0 0 0 0 0 0 0 
0 0 2.61127e-09 0 0 0 0 0 0 
0 0 0 0 0 0 0 0 0 
0 0 0 0 0 0 0 0 0 
0 0 0 0 0 0 0 0 0 
0 0 0 0 0 0 0 0 0 
0 0 0 0 0 0 0 0 0 
4.57976e-10 0 0 2.2728e-10 0 0 2.12758e-09 2.21186e-09 1.06097e-08 
7.26081e-07 0 0 1.60574e-09 0 0 0 0 0 
0 0 0 0 4.11524e-10 0 0 9.39534e-09 0 
0 8.49506e-07 0 0 0 0 0 0 0 
0 0 0 0 0 6.62152e-07 0 3.6652e-09 0 
0 1.98427e-09 0 0 4.34017e-09 0 0 0 0 
0 4.63236e-10 0 0 0 0 0 0 0 
0 0 5.98676e-10 0 0 0 0 6.6586e-10 0 
0 0 0 0 0 0 0 0 0 
0 0 0 0 0 0 0 0 0 
0 0 0 0 0 0 0 6.39932e-07 0 
0 0 0 0 0 0 0 0 0 
0 0 0 0 1.92476e-09 1.16838e-09 0 0 3.76139e-10 
0 0 0 0 0 0 0 0 0 
7.47069e-07 0 0 0 0 0 0 0 0 
0 0 0 0 0 0 5.07865e-09 0 3.69848e-09 
0 0 0 0 0 0 2.74462e-09 0 1.70192e-09 
1.00303e-09 0 0 0 0 0 0 0 0 
0 0 0 0 0 0 0 0 0 
0 0 0 0 0 0 0 0 0 
0 0 0 0 0 0 0 0 0 
0 0 0 0 0 0 2.16599e-09 2.35689e-09 0 
0 0 0 0 0 5.30085e-10 0 5.30757e-10 0 
1.58667e-09 1.35861e-09 1.83848e-10 0 0 0 0 0 0 
0 0 0 0 0 9.46899e-10 0 2.88813e-09 0 
0 0 0 0 0 0 0 1.56797e-09 0 
0 0 0 0 0 0 0 0 0 
4.44665e-09 0 0 8.37348e-07 0 8.33206e-07 9.26083e-09 0 0 
0 0 0 0 0 0 0 0 0 
3.34132e-10 0 0 0 3.64117e-09 0 0 0 0 
2.0012e-09 0 0 0 0 0 0 0 0 
0 0 0 0 0 0 0 0 0 
0 0 0 0 0 0 0 0 0 
0 0 0 0 1.64072e-09 0 0 0 0 
0 0 0 0 2.50051e-11 0 0 0 0 
0 0 0 0 0 0 0 0 0 
1.87341e-09 0 4.77763e-09 0 0 4.53189e-09 0 0 0 
0 0 0 0 0 0 0 0 0 
6.7011e-07 2.71533e-09 0 0 0 8.71712e-07 0 3.73223e-09 2.92963e-09 
6.34131e-10 0 0 0 0 0 0 0 3.36949e-10 
0 0 0 0 4.20465e-09 0 0 0 7.10436e-07 
0 0 0 3.23933e-10 0 0 0 0 0 
0 0 0 0 0 0 0 0 0 
0 0 0 0 0 0 0 0 0 
0 0 0 0 0 0 0 6.39998e-07 0 
0 0 0 0 0 0 0 3.66005e-10 0 
0 0 0 0 6.44369e-07 0 0 0 0 
0 0 0 0 8.98093e-07 8.8423e-07 0 0 0 
0 0 0 0 0 0 0 0 0 
3.00435e-09 9.3308e-09 0 0 0 1.77689e-09 0 0 1.67232e-09 
3.27405e-11 0 0 0 0 5.60973e-10 0 0 0 
1.51665e-09 0 0 0 0 5.5872e-09 6.93369e-07 0 0 
0 0 4.08635e-10 0 0 0 0 0 0 
0 0 0 0 0 0 0 0 0 
0 0 0 0 0 0 0 0 0 
0 0 0 0 0 0 0 1.36622e-09 1.83878e-09 
0 0 0 0 0 0 0 0 0 
0 0 0 0 0 0 0 2.32651e-09 0 
0 0 0 0 0 1.13002e-08 0 0 0 
0 0 0 0 0 0 0 0 8.57409e-10 
0 0 0 0 0 0 0 0 0 
0 0 3.15711e-10 0 0 0 0 0 0 
0 0 1.68512e-09 0 0 0 0 1.76883e-09 0 
4.95361e-09 0 7.04827e-07 0 0 0 0 0 0 
0 0 0 0 0 0 0 0 0 
0 0 0 0 0 0 0 0 0 
0 0 0 0 0 0 0 0 0 
0 0 0 0 0 0 0 0 0 
0 0 0 0 0 2.51553e-09 0 0 0 
0 0 0 0 7.61263e-10 0 0 9.16101e-10 3.38964e-09 
0 0 0 0 6.79783e-10 0 0 0 0 
0 0 0 0 0 0 1.68199e-09 0 2.97068e-09 
2.71806e-09 0 0 0 0 0 0 0 0 
0 0 0 0 0 0 6.81447e-07 1.07528e-09 1.56756e-09 
0 0 4.06666e-09 2.55451e-09 0 0 0 0 0 
0 0 0 0 0 0 0 0 0 
0 0 0 0 0 0 0 0 0 
0 0 0 0 0 0 0 0 0 
0 0 0 5.32601e-10 0 0 0 0 0 
0 0 0 0 0 0 0 1.85474e-09 0 
0 0 0 0 1.99093e-09 3.22596e-09 6.72051e-07 0 0 
0 0 1.25124e-09 0 0 0 0 0 0 
0 0 0 0 0 0 0 0 0 
0 0 0 0 0 0 3.77042e-09 0 1.06464e-09 
1.17866e-09 0 0 6.49842e-07 0 1.74766e-09 0 0 0 
3.57948e-09 0 0 0 0 2.39014e-09 0 0 0 
0 0 0 0 0 0 0 0 0 
0 0 0 0 0 0 0 0 0 
0 0 0 0 0 1.85491e-09 0 0 0 
5.92251e-10 0 0 0 0 0 0 0 0 
0 0 0 0 0 0 6.44412e-07 0 0 
0 0 0 0 0 0 0 0 3.09479e-09 
0 0 0 0 0 0 0 0 0 
0 0 0 0 0 0 0 0 0 
0 0 1.38165e-09 0 0 2.22014e-09 5.74452e-09 6.45125e-07 0 
0 0 0 0 8.67289e-09 0 0 0 0 
0 1.57973e-09 0 0 0 0 0 0 0 
0 4.46231e-10 0 0 0 0 0 0 0 
0 0 0 0 0 0 0 0 0 
0 0 0 0 0 0 6.40597e-07 4.33395e-09 1.67155e-09 
0 0 0 0 2.28991e-11 0 0 0 0 
0 0 0 0 0 1.08112e-09 2.12934e-09 0 0 
0 0 6.37287e-10 0 0 0 0 1.17269e-09 0 
2.56927e-09 0 0 7.44136e-10 0 0 1.45037e-09 6.71496e-07 0 
0 7.79012e-10 0 0 0 0 0 0 0 
0 0 0 0 0 0 0 2.64001e-09 0 
0 5.84872e-11 0 0 0 0 0 0 1.08545e-09 
0 0 0 4.06247e-09 0 0 0 6.55643e-07 0 
0 0 0 0 0 0 0 0 0 
0 0 0 0 0 0 0 0 0 
0 0 0 0 8.99326e-10 0 0 0 2.74472e-09 
0 0 0 0 0 0 0 0 0 
0 0 0 0 0 0 0 0 6.933e-10 
0 1.35448e-09 6.45714e-10 5.71417e-10 0 0 0 0 0 
0 0 0 0 7.21845e-10 0 2.39961e-09 0 0 
0 0 0 0 0 0 0 0 0 
0 1.4596e-10 0 0 0 6.44422e-07 4.49853e-09 4.37187e-09 0 
0 0 0 0 0 9.95249e-10 0 0 0 
3.69993e-09 0 6.5218e-07 3.10672e-09 0 1.80192e-09 0 1.56034e-09 0 
0 0 0 0 0 0 0 0 0 
0 0 0 0 0 0 0 0 0 
0 0 0 0 0 0 0 0 0 
1.81933e-09 0 0 0 0 0 0 0 0 
0 0 3.04018e-10 0 6.61853e-10 0 0 0 0 
1.30726e-09 0 8.48434e-10 0 0 0 0 0 0 
0 0 0 5.73477e-10 0 0 0 0 0 
0 0 0 9.75982e-07 9.04682e-07 0 0 4.50346e-10 0 
0 0 0 0 0 0 0 0 0 
1.05399e-09 0 0 1.55305e-10 0 0 5.94542e-10 0 0 
0 0 1.20261e-09 0 0 0 0 0 0 
0 0 0 0 0 0 0 0 0 
0 0 0 0 0 0 0 0 0 
0 0 0 0 0 0 0 0 2.50597e-09 
8.82517e-10 0 0 0 0 0 0 0 0 
0 0 0 0 0 0 0 0 0 
0 3.57131e-10 0 0 0 0 0 7.24443e-10 3.60741e-10 
6.11471e-10 0 6.16996e-11 0 0 0 0 0 0 
0 0 0 8.22121e-07 0 0 7.40164e-09 0 0 
0 0 0 0 0 0 0 0 6.46758e-12 
0 0 0 0 0 0 0 0 0 
3.06221e-09 0 1.76589e-09 0 0 0 1.34773e-09 0 0 
0 0 1.98755e-09 0 0 0 0 0 0 
0 0 0 0 0 0 0 0 0 
0 0 0 0 0 0 0 0 0 
0 0 0 0 0 0 0 0 0 
8.67505e-10 0 0 0 0 0 2.18365e-09 0 3.16338e-10 
0 0 0 2.48884e-10 0 0 4.20346e-09 6.42751e-07 0 
0 0 0 0 1.74775e-09 0 0 0 0 
6.64826e-07 0 3.87584e-09 0 0 0 0 0 0 
0 0 0 0 0 0 0 0 0 
4.12076e-11 0 5.15516e-10 6.16335e-10 0 0 0 0 5.17674e-09 
6.61039e-07 0 0 1.04349e-09 0 0 0 0 0 
2.04747e-09 6.51985e-07 0 0 0 0 0 0 0 
0 0 0 0 0 0 0 0 0 
0 0 0 0 0 0 0 0 0 
0 0 0 6.16657e-09 0 0 0 0 0 
0 0 0 0 0 6.23883e-09 6.72727e-07 0 0 
5.19846e-10 0 0 0 0 0 0 0 0 
2.54861e-09 0 0 0 0 0 2.60889e-10 1.72695e-09 0 
0 5.72961e-09 0 0 0 0 0 3.68695e-09 0 
0 7.59055e-10 0 0 0 0 0 0 0 
0 0 0 0 0 0 0 0 0 
0 0 0 2.73053e-09 0 0 0 0 1.94809e-09 
0 1.1101e-08 0 0 0 0 0 0 0 
0 0 0 0 0 0 0 0 0 
0 0 0 0 0 0 0 0 0 
0 0 0 6.40637e-07 0 0 0 0 0 
0 0 0 0 6.73712e-07 0 0 0 0 
0 0 0 0 0 0 0 3.74634e-09 0 
2.27171e-09 0 0 0 0 0 1.16653e-09 0 6.51853e-07 
4.56551e-09 3.40095e-09 0 0 0 0 0 1.74729e-09 0 
0 0 0 0 0 0 0 0 0 
0 0 0 0 0 0 0 0 2.19047e-09 
0 0 0 0 0 0 0 0 0 
0 0 2.45528e-09 0 0 0 0 0 0 
0 0 0 0 0 0 0 0 0 
0 0 0 0 0 0 0 0 0 
0 0 0 0 1.8588e-09 0 0 0 0 
0 0 0 8.17732e-10 0 0 1.35155e-09 0 0 
0 2.03339e-09 0 0 0 0 3.71321e-09 0 0 
2.38005e-09 0 9.71997e-10 0 0 0 0 0 0 
0 2.2493e-09 1.31184e-09 0 0 0 0 0 1.12564e-09 
0 0 1.66348e-09 6.6325e-07 5.1758e-09 0 0 0 0 
0 0 0 0 0 0 0 0 0 
0 0 0 0 0 1.49735e-09 0 2.15e-09 0 
6.47824e-07 0 0 0 1.75897e-09 0 0 0 0 
0 0 0 0 0 0 0 0 0 
0 0 0 0 0 0 0 0 0 
0 0 0 7.49963e-10 0 7.59792e-10 0 0 1.02725e-09 
4.57688e-10 7.08026e-10 0 3.17028e-09 0 0 0 0 0 
2.34785e-09 2.49952e-09 7.30949e-07 3.58711e-09 0 3.38151e-09 0 6.57976e-07 2.51594e-09 
0 0 0 4.31596e-10 1.42319e-09 2.35949e-09 1.28374e-09 0 0 
0 2.14829e-09 0 4.87414e-10 0 0 0 0 0 
0 0 0 0 0 0 0 0 0 
0 0 0 0 0 0 0 0 3.8744e-10 
0 0 0 9.72864e-07 1.07378e-06 0 0 0 0 
0 0 0 0 5.13805e-10 0 0 0 0 
0 0 0 0 0 0 0 0 0 
0 0 0 0 0 0 0 0 0 
0 0 0 0 0 0 0 0 0 
0 0 0 0 0 7.01621e-07 2.26407e-09 0 1.93113e-09 
0 0 4.31081e-09 1.36341e-09 0 0 0 0 1.94223e-09 
2.51266e-09 0 0 0 0 6.66579e-07 1.78567e-09 1.44079e-09 1.63565e-09 
0 0 0 0 0 0 0 0 0 
0 0 0 0 0 0 3.92863e-09 0 0 
0 0 0 0 0 0 0 0 0 
0 0 0 0 0 9.76706e-07 0 0 4.12954e-09 
1.65568e-09 0 0 0 0 1.34449e-09 0 0 7.59207e-07 
0 0 1.51039e-09 3.89971e-10 0 0 0 0 0 
0 0 0 0 0 0 0 0 0 
0 0 0 0 0 0 0 0 0 
0 0 0 0 0 0 0 0 0 
0 2.38721e-09 0 0 7.36553e-07 0 2.00453e-09 0 2.93503e-09 
8.26889e-10 0 0 4.00378e-09 0 0 0 0 0 
2.4535e-09 0 0 3.82395e-10 0 7.89933e-10 0 8.15593e-10 0 
0 0 0 0 0 0 0 6.74761e-07 0 
0 1.9557e-09 0 0 0 0 0 0 0 
0 0 0 1.48195e-09 0 0 0 0 0 
0 3.96127e-09 0 0 0 0 0 0 0 
0 7.62855e-07 0 0 0 0 0 0 0 
0 0 0 0 0 0 0 0 0 
0 0 0 0 0 0 0 0 0 
1.16794e-10 0 6.19913e-10 0 0 6.49385e-09 6.90579e-07 3.29156e-09 0 
1.63347e-09 0 0 2.26711e-09 0 0 4.00098e-10 0 1.58825e-09 
0 0 3.97833e-09 6.59119e-07 1.10113e-09 1.19893e-09 0 0 0 
0 2.58725e-11 1.33388e-09 0 1.57345e-09 0 7.78682e-10 0 0 
0 0 2.42048e-09 7.57023e-07 8.27651e-09 0 7.9889e-10 0 0 
0 0 7.60756e-09 0 0 0 0 0 3.46955e-10 
0 5.1391e-10 1.3674e-09 0 0 0 9.66202e-10 4.44506e-09 8.93965e-10 
0 6.62551e-07 3.25887e-09 2.093e-09 0 1.41458e-09 0 0 0 
0 0 0 2.99343e-09 0 0 0 0 0 
0 0 0 0 0 0 0 0 0 
0 0 0 0 0 0 0 0 0 
0 0 0 0 0 0 2.99749e-09 0 0 
0 0 0 8.14716e-10 0 0 4.33533e-10 0 3.13563e-09 
0 0 0 0 0 9.98484e-09 0 1.34086e-09 0 
6.66855e-07 0 2.06937e-09 0 0 2.88064e-09 0 0 0 
0 0 0 0 0 7.58922e-07 0 1.67929e-09 0 
0 0 0 4.41308e-09 0 0 0 0 0 
0 0 0 0 0 1.16824e-10 2.01533e-09 2.45865e-10 0 
0 2.83556e-09 0 0 0 0 0 0 0 
1.37578e-10 0 0 0 2.79164e-09 0 0 0 0 
0 0 0 0 0 0 0 0 0 
0 0 0 0 0 0 0 0 0 
0 0 0 0 0 0 0 0 0 
0 1.4045e-09 0 2.29493e-10 4.6472e-10 0 0 0 6.68705e-07 
0 0 1.63568e-09 0 0 0 0 4.10782e-09 0 
0 0 6.0306e-10 2.79564e-09 0 0 6.56811e-07 0 0 
0 0 0 1.76424e-09 0 0 0 0 0 
0 0 0 0 9.26037e-07 9.53982e-07 1.80621e-09 0 0 
0 0 0 6.69368e-10 6.51003e-07 0 0 0 0 
0 0 2.98248e-09 0 0 0 0 0 0 
0 0 5.49843e-09 0 0 0 0 0 0 
0 0 0 0 0 0 0 0 0 
0 0 0 0 0 0 0 0 0 
0 0 0 0 0 0 0 0 0 
0 0 0 4.47484e-10 0 0 0 0 0 
0 0 0 0 0 0 0 0 0 
0 0 0 0 0 8.91657e-10 0 0 0 
1.70091e-09 1.43341e-09 0 0 0 0 1.98961e-09 0 1.1241e-09 
0 0 0 0 0 0 0 0 0 
0 0 0 0 0 4.22789e-09 2.92097e-09 0 0 
1.5632e-09 0 0 0 0 1.57706e-10 0 4.67463e-10 0 
3.88722e-09 0 0 5.09593e-09 8.14751e-07 0 0 0 0 
0 0 0 0 0 0 0 0 0 
0 0 0 0 0 0 0 0 0 
0 0 0 0 2.10686e-10 0 0 0 0 
0 0 0 0 0 0 0 9.58888e-10 0 
0 0 0 1.11189e-09 0 0 0 0 0 
0 0 0 0 0 3.44305e-09 3.24342e-09 0 2.67576e-09 
0 1.56624e-09 1.31879e-09 0 0 0 0 0 0 
0 0 0 0 0 0 0 9.92276e-07 9.86452e-09 
0 0 0 0 2.48007e-09 0 0 0 2.51432e-09 
7.34015e-10 0 0 2.21061e-09 0 0 0 0 0 
0 0 4.03817e-09 0 9.73053e-07 0 0 0 1.06628e-09 
0 0 0 0 0 0 0 0 0 
0 0 0 0 0 0 0 0 0 
0 0 0 0 0 0 0 0 1.76057e-09 
5.04417e-09 0 0 0 4.79278e-10 0 0 0 6.46924e-07 
4.50458e-09 4.64686e-10 0 1.99973e-09 0 0 1.9506e-09 0 0 
0 0 0 0 0 1.14104e-09 0 6.66444e-07 0 
0 0 0 3.14542e-10 0 0 0 0 0 
9.4757e-10 0 0 0 2.39597e-09 0 0 0 9.31387e-07 
0 0 0 0 7.39909e-07 0 0 0 0 
0 0 0 0 0 0 0 1.87856e-09 2.9014e-09 
0 6.71913e-07 1.51366e-09 3.71783e-10 0 9.10159e-07 0 0 6.80717e-10 
1.20871e-09 0 0 0 0 0 0 0 0 
0 0 0 0 0 0 0 0 0 
0 0 0 0 0 0 0 0 0 
0 0 0 7.46148e-10 0 0 0 0 0 
2.96957e-09 1.92845e-09 0 1.03738e-09 0 0 1.49697e-09 0 0 
0 0 0 0 0 0 0 0 1.11578e-09 
0 1.33122e-09 2.59635e-09 0 0 2.46683e-09 0 0 0 
1.11952e-09 0 0 2.03117e-09 0 8.23949e-10 1.50184e-09 0 0 
6.16967e-09 0 0 9.39411e-07 0 1.24932e-09 0 3.69078e-09 0 
9.523e-10 4.49522e-09 0 2.2301e-09 3.03523e-09 0 6.6038e-07 0 0 
2.21308e-09 0 3.925e-09 1.64048e-09 3.53083e-09 0 0 0 0 
0 0 0 0 0 0 0 0 0 
0 0 0 0 0 0 0 0 0 
0 0 0 0 0 0 0 0 0 
0 6.17325e-09 6.71964e-07 5.51824e-09 0 4.64895e-10 0 0 0 
2.29528e-10 6.55241e-10 1.65731e-09 8.41286e-10 0 0 0 0 6.47468e-07 
0 0 0 0 0 0 0 0 0 
0 0 6.7099e-09 0 0 4.07716e-09 0 1.2185e-09 0 
0 1.53879e-09 0 0 0 9.89951e-10 0 2.85328e-11 0 
0 0 1.43783e-09 0 9.04166e-07 0 0 4.21448e-09 0 
6.90784e-07 0 1.33823e-09 6.80796e-07 4.27609e-09 0 0 4.98865e-09 2.75595e-09 
0 2.29303e-09 0 0 0 0 0 0 1.99412e-09 
1.74947e-09 9.02583e-10 0 0 0 0 0 0 0 
0 0 0 0 0 0 0 0 0 
0 0 0 0 0 0 0 0 0 
0 0 0 0 0 6.79394e-10 1.14262e-10 0 0 
0 0 0 0 0 0 0 0 0 
1.19529e-09 0 0 0 4.92604e-10 0 0 0 0 
1.42047e-09 0 0 0 0 0 7.58193e-07 0 0 
0 1.38743e-09 0 0 0 0 0 0 0 
0 0 0 0 0 0 0 1.20221e-09 0 
0 6.58768e-10 0 9.683e-10 4.44342e-09 0 5.92566e-09 0 0 
0 0 0 0 0 5.26135e-09 4.10605e-09 0 9.60782e-10 
0 0 0 0 0 0 0 0 0 
0 0 0 0 0 0 0 0 0 
0 0 0 0 0 0 0 0 0 
0 0 0 0 0 3.78413e-09 0 0 0 
3.83156e-10 0 3.07576e-09 0 0 0 4.58715e-11 0 1.15096e-09 
0 0 0 0 0 0 0 0 0 
4.14549e-10 0 0 1.44115e-09 0 0 0 0 2.78911e-09 
3.15761e-09 0 0 0 6.74268e-07 0 0 0 0 
0 0 1.43472e-09 0 0 0 0 0 0 
0 0 5.47348e-10 0 0 0 0 2.32977e-09 0 
9.34754e-10 0 4.15778e-09 0 0 7.71725e-07 0 0 0 
0 0 0 0 0 0 0 0 0 
0 0 0 0 0 0 0 0 0 
0 0 0 0 0 0 0 1.3475e-10 0 
9.48674e-10 0 0 8.681e-07 8.84651e-07 0 0 0 0 
0 0 0 6.48129e-09 0 0 0 0 3.21901e-10 
7.91176e-10 0 0 1.92588e-09 0 0 0 0 0 
0 0 0 0 0 0 0 8.66601e-07 1.17064e-09 
0 0 0 0 4.87909e-09 0 0 0 6.69403e-07 
0 0 0 0 6.55773e-07 0 0 0 0 
3.76051e-10 0 0 2.58615e-09 0 0 0 0 0 
0 0 6.78676e-07 0 0 0 0 7.6011e-07 0 
0 0 3.43399e-10 0 0 0 0 0 0 
0 0 0 0 0 0 0 0 0 
0 0 0 0 0 0 0 0 0 
0 1.52157e-09 0 0 0 0 5.56044e-09 0 0 
1.76777e-09 0 0 0 0 6.40938e-07 7.46642e-09 3.2815e-09 0 
0 9.30742e-10 0 1.91946e-09 6.46932e-07 0 1.71106e-09 0 0 
3.01172e-10 0 0 0 0 0 0 0 0 
0 0 0 0 4.67442e-09 6.78315e-10 0 0 7.28585e-10 
0 5.57514e-09 0 0 0 0 0 1.10203e-09 0 
1.82517e-09 0 6.54241e-07 0 0 0 2.45511e-09 0 0 
6.78391e-07 0 0 2.75307e-09 0 1.44037e-09 0 0 0 
0 0 0 0 0 0 0 0 0 
0 0 0 0 0 0 0 0 0 
0 0 0 0 0 0 0 0 0 
0 0 6.83639e-10 0 1.88866e-09 0 0 0 0 
0 0 1.4653e-09 0 0 0 1.69913e-09 0 0 
0 0 0 0 0 3.12838e-09 0 0 0 
0 4.51799e-10 0 0 0 0 0 9.80921e-07 1.14326e-06 
1.03675e-06 0 0 1.85772e-09 7.65528e-07 0 0 3.20524e-09 0 
0 0 0 0 0 0 0 0 0 
0 0 2.0277e-09 2.43022e-09 0 1.04372e-09 3.42306e-09 0 0 
1.22823e-09 0 0 0 0 0 0 1.64305e-09 0 
3.04216e-09 0 0 0 0 0 0 0 0 
0 0 0 0 0 0 0 0 0 
0 0 0 0 0 0 0 0 0 
0 0 0 0 0 3.14633e-09 0 0 7.27971e-09 
8.67071e-07 0 0 0 0 0 0 0 0 
0 0 0 0 0 0 0 0 1.05933e-09 
0 0 0 0 0 0 0 0 0 
2.225e-09 0 0 0 0 0 5.91722e-09 7.26999e-07 0 
0 3.91951e-09 0 0 0 5.84965e-10 0 0 0 
0 1.01209e-09 0 0 0 0 0 0 6.57723e-07 
0 0 0 0 4.76633e-10 0 0 5.35383e-10 0 
0 0 0 0 0 0 0 0 0 
0 0 0 0 0 0 0 0 0 
0 0 0 0 0 0 0 0 0 
0 0 0 0 0 0 0 0 0 
0 8.57201e-07 0 6.41727e-10 0 0 0 0 0 
0 0 0 0 0 0 9.05327e-10 0 1.07748e-09 
0 0 0 0 0 0 1.04839e-09 0 0 
0 1.69688e-09 0 2.40421e-09 0 7.32715e-07 0 0 4.17515e-09 
0 0 0 0 4.17876e-10 0 0 0 0 
4.38472e-10 0 0 0 0 0 0 0 0 
0 0 2.10554e-09 0 0 0 0 0 0 
0 0 0 4.23544e-10 0 0 0 0 0 
0 0 0 0 0 0 0 0 0 
0 0 0 0 0 0 0 0 0 
0 0 0 0 0 0 0 0 0 
0 0 1.81705e-08 0 2.48837e-09 0 0 0 0 
0 0 0 0 0 0 0 0 0 
0 0 0 0 0 1.31151e-09 0 2.59324e-09 0 
4.36677e-09 7.03546e-07 2.87621e-09 0 0 0 6.75459e-09 3.981e-09 5.91404e-09 
0 0 0 0 8.58117e-07 0 0 0 0 
0 0 0 0 0 0 0 0 0 
0 0 1.49673e-09 7.08743e-10 0 2.25825e-09 2.26287e-09 0 0 
1.26583e-09 0 0 0 0 0 0 0 0 
0 0 0 0 0 0 0 0 0 
0 0 0 0 0 0 0 0 0 
0 0 0 0 0 0 0 0 0 
0 0 1.93775e-09 4.25955e-10 0 0 0 0 0 
0 3.82578e-10 0 0 0 0 0 0 0 
2.23154e-10 0 0 0 0 3.15594e-09 0 5.78832e-09 1.21889e-09 
0 0 2.02211e-09 0 9.04555e-10 1.7732e-09 0 1.89383e-09 0 
1.28098e-09 0 0 0 2.57818e-09 8.54068e-07 0 3.94564e-09 1.94917e-09 
0 0 0 0 0 0 0 0 0 
0 0 0 0 5.47318e-10 5.76339e-10 0 0 2.29325e-09 
0 0 0 0 0 0 0 0 0 
0 0 0 0 0 0 0 0 0 
0 0 0 0 0 0 0 0 0 
0 0 0 0 0 0 0 4.08312e-09 0 
0 0 6.86396e-10 1.04304e-09 0 0 0 0 0 
0 4.03272e-10 0 0 0 0 0 0 0 
0 0 0 0 0 0 1.16404e-09 3.36082e-09 0 
0 0 0 1.69491e-09 0 0 0 0 0 
6.75248e-10 0 0 0 0 0 0 0 0 
0 0 0 0 0 8.73457e-10 0 0 0 
0 0 0 0 0 0 1.49549e-09 0 6.48188e-07 
0 1.65941e-09 0 0 0 0 0 0 0 
0 0 0 0 0 0 0 0 0 
0 0 0 0 0 0 0 0 0 
0 0 0 0 0 0 0 7.95741e-10 6.40187e-07 
0 0 1.16116e-09 0 0 0 2.20575e-10 0 1.26007e-09 
7.8139e-10 0 0 0 0 0 0 0 0 
0 0 0 0 4.92559e-10 0 0 0 7.0948e-10 
0 0 0 0 0 0 0 0 0 
0 0 0 0 0 1.50965e-09 0 5.13228e-09 0 
1.76036e-09 0 1.0763e-10 0 4.25044e-09 0 0 0 0 
0 0 0 0 0 0 0 0 3.05303e-09 
2.15435e-09 0 0 0 0 0 0 0 0 
0 0 0 0 0 0 0 0 0 
0 0 0 0 0 0 0 0 0 
0 0 0 0 0 0 0 0 2.26262e-09 
1.77771e-09 0 7.27933e-10 8.10715e-10 0 0 9.76548e-10 0 0 
0 0 0 0 0 0 0 0 0 
0 0 0 0 7.77406e-10 0 0 0 1.38875e-09 
0 0 0 0 0 0 0 0 0 
0 0 0 0 0 0 0 0 0 
0 0 2.83295e-09 0 1.47562e-09 6.77084e-07 0 0 0 
0 0 0 0 0 0 0 0 0 
0 0 0 0 0 0 0 1.30667e-09 0 
0 0 0 0 0 0 0 0 0 
0 0 0 0 0 0 0 0 0 
0 0 0 0 0 0 0 0 0 
0 2.07006e-09 1.94783e-09 0 0 0 0 2.89977e-09 6.54253e-07 
4.65217e-09 0 0 1.94255e-09 0 0 0 0 0 
1.00625e-10 0 0 0 0 6.54708e-10 0 0 0 
0 0 0 0 0 0 0 0 0 
0 0 0 0 0 0 0 0 0 
0 0 2.50705e-09 0 0 0 0 0 3.42565e-09 
0 0 5.2612e-10 0 0 0 0 0 0 
1.05864e-09 0 0 0 0 0 0 0 0 
0 0 0 7.34438e-10 1.3663e-10 0 0 0 0 
0 0 0 0 0 0 0 0 0 
0 0 0 0 0 0 0 0 0 
0 0 0 0 0 0 0 0 0 
0 0 4.28339e-09 1.81934e-10 6.67876e-07 0 0 1.556e-09 0 
0 0 0 0 0 0 0 0 0 
0 0 0 0 1.07853e-09 0 0 2.56172e-09 0 
0 0 0 0 0 4.0778e-10 0 0 0 
0 9.49851e-10 0 0 5.51516e-09 0 6.23339e-09 0 0 
4.62077e-09 6.67512e-10 0 0 0 0 0 0 0 
3.29209e-10 3.21396e-10 2.0328e-09 0 6.481e-07 4.23766e-09 0 0 3.10155e-09 
0 1.95991e-09 0 0 0 0 0 0 0 
0 0 0 0 0 0 0 0 0 
0 0 0 0 0 0 0 0 0 
0 0 0 0 0 0 0 0 0 
0 0 0 0 0 0 0 0 0 
0 0 0 9.97508e-10 3.19965e-09 0 0 2.41845e-09 0 
2.39997e-09 0 0 0 0 0 2.99974e-09 6.41582e-07 0 
4.68369e-09 0 0 0 0 0 0 0 0 
6.42808e-07 4.85061e-09 0 1.62784e-09 0 0 0 0 0 
9.29392e-09 6.58052e-07 0 2.51113e-09 0 0 0 0 0 
0 0 1.09457e-09 0 0 1.48309e-09 0 0 0 
0 0 8.49859e-07 0 0 0 0 0 0 
0 0 0 0 0 0 0 0 0 
0 0 0 0 0 0 0 0 0 
0 0 0 0 0 0 0 0 0 
0 0 0 0 0 0 4.7743e-09 0 0 
1.64402e-09 3.02883e-10 0 0 6.08118e-10 0 6.65488e-07 0 3.90478e-09 
0 0 0 0 0 0 2.09923e-09 6.1975e-10 0 
0 0 0 0 2.07498e-10 0 0 0 0 
0 0 1.94957e-09 0 0 0 0 0 0 
0 0 1.82753e-09 2.63967e-09 0 0 0 0 0 
0 0 0 0 0 0 0 0 1.34596e-09 
9.1159e-10 2.70059e-09 0 8.49646e-07 5.43649e-09 0 0 0 0 
0 0 0 0 0 0 0 0 0 
0 0 0 0 0 0 0 0 0 
0 0 0 0 0 0 0 0 1.21601e-09 
0 2.11909e-09 0 0 0 0 6.88873e-07 2.64982e-09 0 
1.09418e-09 1.39986e-09 0 0 0 0 0 0 0 
0 0 0 8.06052e-07 1.08688e-09 0 0 0 0 
0 6.06e-10 0 0 0 0 0 4.95522e-10 0 
2.34709e-09 0 0 0 0 0 0 0 0 
1.26448e-09 0 0 0 0 0 0 0 0 
0 0 0 0 0 0 0 0 0 
0 0 0 0 0 0 1.40219e-09 6.29706e-10 0 
0 0 0 0 0 0 0 0 0 
0 0 0 0 0 0 0 0 0 
0 0 0 0 0 0 3.5197e-09 1.34074e-09 0 
0 0 0 3.02993e-09 0 0 0 0 3.25829e-09 
0 0 0 0 0 0 0 0 0 
0 0 7.2878e-07 0 2.75015e-09 7.80256e-07 9.47802e-09 0 0 
1.73085e-09 1.12004e-09 0 0 0 0 0 0 0 
0 0 0 0 0 0 0 0 0 
0 0 0 0 0 0 0 0 0 
0 0 0 0 0 0 0 0 0 
0 0 0 0 0 0 2.08521e-09 2.57177e-09 0 
0 0 0 0 0 0 0 0 0 
0 0 0 0 0 0 0 0 0 
0 0 0 0 0 0 0 6.43332e-07 0 
0 0 0 0 8.73286e-07 4.02196e-09 0 0 0 
0 0 0 0 0 0 0 6.55436e-07 1.92399e-09 
0 0 3.46521e-09 7.76876e-09 0 0 0 0 3.79468e-09 
0 0 0 0 0 0 0 6.28687e-10 0 
0 0 0 0 9.19386e-10 0 0 0 0 
0 0 0 0 0 0 0 0 0 
0 0 0 0 0 0 0 0 0 