# vtk DataFile Version 5.1
vtk output
ASCII
DATASET STRUCTURED_POINTS
DIMENSIONS 100 100 1
SPACING 1 1 1
ORIGIN 0 0 0
POINT_DATA 10000
FIELD FieldData 6
feature_1 1 10000 float
0 0 0 0 0 0 0 0 0 
0 0 0 0 0 0 0 0 0 
0 0 0 0 0 0 0 0 0 
0 0 0 0 0 0 0 0 0 
0 0 0 0 0 0 0 0 0 
0 0 0 0 0 0 0 0 0 
0 0 0 0 0 0 0 0 0 
0 0 0 0 0 0 0 0 0 
0 0 0 0 0 0 0 0 0 
0 0 0 0 0 0 0 0 0 
0 0 0 0 0 0 0 0 0 
0 0 0 0 0 0 0 0 0 
0 0 0 0 0 0 0 0 0 
0 0 0 0 0 0 0 0 0 
0 0 0 0 0 0 0 0 0 
0 0 0 0 0 0 0 0 0 
0 0 0 0 0 0 0 0 0 
0 0 0 0 0 0 0 0 0 
0 0 0 0 0 0 0 0 0 
0 0 0 0 0 0 0 0 0 
0 0 0 0 0 0 0 0 0 
0 0 0 0 0 0 0 0 0 
0 0 0 0 0 0 0 0 0 
0 0 0 0 0 0 0 0 0 
0 0 0 0 0 0 0 0 0 
0 0 0 0 0 0 0 0 0 
0 0 0 0 0 0 0 0 0 
0 0 0 0 0 0 0 0 0 
0 0 0 0 0 0 0 0 0 
0 0 0 0 0 0 0 0 0 
0 0 0 0 0 0 0 0 0 
0 0 0 0 0 0 0 0 0 
0 0 0 0 0 0 0 0 0 
0 0 0 0 0 0 0 0 0 
0 0 0 0 0 0 0 0 0 
0 0 0 0 0 0 0 0 0 
0 0 0 0 0 0 0 0 0 
0 0 0 0 0 0 0 0 0 
0 0 0 0 0 0 0 0 0 
0 0 0 0 0 0 0 0 0 
0 0 0 0 0 0 0 0 0 
0 0 0 0 0 0 0 0 0 
0 0 0 0 0 0 0 0 0 
0 0 0 0 0 0 0 0 0 
0 0 0 0 0 0 0 0 0 
0 0 0 0 0 0 0 0 0 
0 0 0 0 0 0 0 0 0 
0 0 0 0 0 0 0 0 0 
0 0 0 0 0 0 0 0 0 
0 0 0 0 0 0 0 0 0 
0 0 0 0 0 0 0 0 0 
0 0 0 0 0 0 0 0 0 
0 0 0 0 0 0 0 0 0 
0 0 0 0 0 0 0 0 0 
0 0 0 0 0 0 0 0 0 
0 0 0 0 0 0 0 0 0 
0 0 0 0 0 0 0 0 0 
0 0 0 0 0 0 0 0 0 
0 0 0 0 0 0 0 0 0 
0 0 0 0 0 0 0 0 0 
0 0 0 0 0 0 0 0 0 
0 0 0 0 0 0 0 0 0 
0 0 0 0 0 0 0 0 0 
0 0 0 0 0 0 0 0 0 
0 0 0 0 0 0 0 0 0 
0 0 0 0 0 0 0 0 0 
0 0 0 0 0 0 0 0 0 
0 0 0 0 0 0 0 0 0 
0 0 0 0 0 0 0 0 0 
0 0 0 0 0 0 0 0 0 
0 0 0 0 0 0 0 0 0 
0 0 0 0 0 0 0 0 0 
0 0 0 0 0 0 0 0 0 
0 0 0 0 0 0 0 0 0 
0 0 0 0 0 0 0 0 0 
0 0 0 0 0 0 0 0 0 
0 0 0 0 0 0 0 0 0 
0 0 0 0 0 0 0 0 0 
0 0 0 0 0 0 0 0 0 
0 0 0 0 0 0 0 0 0 
0 0 0 0 0 0 0 0 0 
0 0 0 0 0 0 0 0 0 
0 0 0 0 0 0 0 0 0 
0 0 0 0 0 0 0 0 0 
0 0 0 0 0 0 0 0 0 
0 0 0 0 0 0 0 0 0 
0 0 0 0 0 0 0 0 0 
0 0 0 0 0 0 0 0 0 
0 0 0 0 0 0 0 0 0 
0 0 0 0 0 0 0 0 0 
0 0 0 0 0 0 0 0 0 
0 0 0 0 0 0 0 0 0 
0 0 0 0 0 0 0 0 0 
0 0 0 0 0 0 0 0 0 
0 0 0 0 0 0 0 0 0 
0 0 0 0 0 0 0 0 0 
0 0 0 0 0 0 0 0 0 
0 0 0 0 0 0 0 0 0 
0 0 0 0 0 0 0 0 0 
0 0 0 0 0 0 0 0 0 
0 0 0 0 0 0 0 0 0 
0 0 0 0 0 0 0 0 0 
0 0 0 0 0 0 0 0 0 
0 4.01069e-11 0 0 0 0 0 0 0 
0 0 0 0 0 0 0 6.51618e-10 0 
0 0 0 0 0 0 0 0 0 
0 0 0 0 0 0 0 0 0 
0 0 0 0 0 0 0 0 0 
0 0 0 0 0 0 0 0 0 
0 0 0 0 0 0 0 0 0 
0 0 0 0 0 0 0 0 0 
0 0 0 0 0 0 0 0 0 
0 0 0 0 0 0 0 0 0 
0 0 0 0 0 0 0 0 0 
0 0 0 0 0 0 0 0 0 
0 0 0 0 0 0 0 0 0 
0 1.74053e-09 0 0 0 0 0 0 0 
0 0 0 0 0 0 0 2.35017e-09 0 
0 0 0 0 0 0 0 0 0 
0 0 0 0 0 5.23231e-10 0 0 0 
0 0 0 0 0 0 0 0 0 
0 0 0 0 0 0 0 0 0 
0 0 0 0 0 0 0 0 0 
0 0 0 0 0 0 0 0 0 
0 0 0 0 0 0 0 0 0 
0 0 0 0 0 0 0 0 0 
0 0 0 0 0 0 0 0 1.67477e-09 
0 0 0 0 0 0 0 0 0 
0 0 0 0 0 0 0 0 0 
0 0 0 0 0 0 0 0 0 
0 0 0 0 4.33346e-10 0 0 0 0 
0 0 0 0 0 0 0 0 0 
0 0 0 0 0 0 0 0 0 
0 0 0 0 0 0 0 0 0 
0 0 0 0 0 0 0 0 0 
0 0 0 0 0 0 0 0 0 
0 0 0 0 0 0 0 0 0 
0 0 0 0 0 0 0 0 0 
0 0 0 7.84772e-07 6.73593e-09 2.17067e-09 0 0 0 
0 0 0 0 0 0 0 1.32194e-09 6.40512e-07 
1.38096e-09 0 0 0 0 0 0 0 0 
0 0 0 0 0 0 0 5.2637e-10 0 
0 0 0 0 0 0 0 0 0 
0 0 0 0 0 0 0 0 0 
0 0 0 0 0 0 0 0 0 
0 0 0 0 0 0 0 0 0 
0 0 0 0 0 0 0 0 0 
0 0 0 0 0 0 5.45399e-10 0 0 
0 0 0 1.35694e-09 1.40038e-10 0 0 0 0 
3.1833e-09 0 0 8.24795e-07 0 6.50102e-09 0 0 0 
8.19404e-10 0 0 0 0 6.23841e-10 0 0 0 
0 0 1.87531e-09 1.15398e-09 0 0 0 0 0 
0 0 0 0 0 0 0 0 0 
0 1.52922e-09 0 0 0 0 0 0 0 
0 0 0 0 0 0 0 0 0 
0 0 0 0 0 0 0 0 0 
0 0 0 0 0 0 0 0 0 
0 0 0 0 0 0 0 0 0 
0 0 0 0 4.43613e-09 6.42449e-07 0 1.53732e-09 0 
0 0 0 1.46853e-09 0 8.11767e-09 0 0 1.17713e-09 
0 0 0 0 0 0 0 0 0 
0 0 0 0 0 0 0 0 6.32568e-10 
0 0 0 0 0 0 0 0 0 
0 0 0 0 0 0 1.52297e-09 0 0 
6.41951e-07 1.44157e-09 0 0 0 0 0 0 0 
0 0 0 0 0 0 0 0 0 
0 0 0 0 0 0 0 0 0 
0 0 0 0 0 0 0 0 0 
0 0 0 0 0 0 0 0 0 
0 0 0 0 0 0 0 0 0 
8.64394e-10 0 0 0 0 3.89906e-09 6.42153e-07 4.82073e-09 2.74211e-09 
0 0 0 0 0 0 7.89049e-07 0 0 
6.73694e-10 0 0 0 0 0 0 0 0 
0 0 1.28904e-09 0 0 0 0 0 0 
0 0 0 0 9.65005e-10 0 0 0 0 
0 3.93258e-10 0 0 0 0 0 0 0 
0 0 0 0 0 0 0 0 0 
0 0 0 0 0 0 0 0 0 
0 0 0 0 0 0 0 0 0 
0 0 0 0 0 0 0 0 0 
0 0 0 0 0 0 1.81102e-09 0 0 
0 0 0 0 0 0 2.34359e-09 0 0 
0 0 0 0 0 7.34155e-07 1.24345e-08 0 0 
0 0 6.83629e-07 0 0 1.1523e-09 0 0 0 
0 0 0 0 1.50759e-09 0 1.75885e-09 0 1.99868e-09 
0 0 0 7.9098e-10 0 0 0 0 0 
0 0 0 0 0 0 0 0 0 
8.64441e-11 0 0 0 0 0 0 0 0 
0 0 0 0 0 0 0 0 0 
0 0 0 0 0 0 0 0 0 
0 0 0 0 0 0 0 0 0 
0 0 0 0 0 6.26455e-10 0 5.26497e-09 0 
1.61388e-09 0 0 4.01226e-10 0 0 0 0 2.38139e-09 
0 0 0 0 0 0 0 0 0 
0 0 0 0 0 0 1.18099e-09 3.43123e-10 3.1669e-10 
0 0 0 0 0 0 0 7.13292e-07 0 
7.13074e-07 8.48193e-09 0 0 0 0 0 0 6.61874e-07 
0 0 0 0 0 0 0 0 0 
0 0 0 0 0 0 0 0 0 
0 0 0 0 0 0 0 0 0 
0 0 0 0 0 0 0 0 0 
0 0 0 0 0 0 0 0 0 
0 0 0 0 0 3.7636e-09 0 1.35761e-09 0 
0 0 0 0 0 0 0 0 0 
0 1.39987e-09 0 4.67278e-09 5.55597e-09 0 0 0 0 
0 0 0 0 0 0 1.72415e-09 0 0 
0 0 0 0 0 1.34235e-09 0 0 0 
0 0 2.52289e-09 0 0 3.1688e-10 0 0 0 
0 0 1.99241e-09 2.39449e-09 1.65385e-09 0 0 0 0 
0 0 0 0 0 0 0 0 0 
0 0 0 0 0 0 0 0 0 
0 0 0 0 0 0 0 0 0 
0 0 0 0 0 0 0 0 0 
0 0 0 0 0 0 0 2.15262e-09 0 
4.0145e-09 6.45024e-07 7.99829e-10 0 0 0 0 0 0 
0 0 0 0 6.45996e-07 0 0 0 0 
0 8.89323e-07 9.05645e-07 0 2.26681e-09 7.12961e-07 0 0 0 
0 0 0 0 0 0 0 1.74392e-09 0 
0 1.72952e-09 8.71462e-10 0 0 1.24498e-09 0 0 0 
2.04073e-09 0 0 1.20475e-09 0 0 0 0 0 
0 0 0 0 0 0 0 7.92089e-10 0 
0 0 0 0 0 0 0 0 0 
0 0 0 0 0 0 0 0 0 
0 0 0 0 0 0 0 0 0 
0 0 0 7.60143e-10 2.21901e-09 4.52061e-09 6.42409e-07 5.50052e-09 0 
0 2.78162e-09 3.5276e-09 0 0 0 0 0 0 
0 0 0 0 0 0 0 0 1.7169e-09 
0 0 0 0 0 0 2.02148e-09 0 1.16308e-09 
0 0 0 0 0 0 0 0 0 
0 0 3.54104e-10 0 0 0 0 0 0 
0 0 9.86761e-10 0 0 0 0 0 0 
4.25722e-10 0 0 0 0 0 1.43053e-09 1.48351e-09 0 
0 0 0 0 0 0 0 0 0 
0 0 0 0 0 0 0 0 0 
0 0 0 0 0 0 0 0 0 
0 0 0 0 0 0 0 0 5.24398e-09 
2.1719e-09 0 1.17286e-09 0 0 6.58811e-10 0 0 0 
0 5.67669e-10 0 0 0 0 0 0 6.4895e-10 
1.90212e-09 0 0 0 0 0 0 3.58511e-09 0 
1.26569e-09 0 0 0 0 2.50681e-10 0 0 0 
0 0 0 0 0 1.38728e-09 0 0 0 
0 0 0 0 0 0 0 0 1.53722e-09 
0 4.92288e-10 0 0 0 0 0 1.28317e-09 0 
0 0 0 0 0 0 0 0 0 
0 0 0 0 0 0 0 0 0 
0 0 0 0 0 0 0 0 0 
0 0 0 0 1.45825e-09 0 0 0 0 
0 0 0 0 1.03876e-09 0 0 0 0 
0 0 0 0 0 0 9.39578e-10 9.04845e-10 0 
5.64884e-10 0 0 0 0 1.98799e-09 0 0 0 
0 3.84978e-10 1.48644e-09 0 0 0 0 0 0 
0 0 0 0 0 0 0 4.73251e-09 0 
1.83071e-10 0 0 0 0 1.66136e-09 0 0 7.76533e-10 
0 0 0 0 0 0 0 0 0 
7.13091e-07 0 0 1.63898e-09 0 0 0 0 0 
0 0 0 0 0 0 0 0 0 
0 0 0 0 0 0 0 0 0 
0 0 0 0 0 1.6446e-10 0 0 0 
9.96193e-10 6.90644e-10 0 4.14347e-10 0 0 0 9.6525e-10 0 
0 0 0 4.25825e-10 0 0 7.70275e-10 0 0 
5.79746e-10 0 0 0 1.6351e-09 0 0 8.68588e-07 8.65881e-07 
0 0 0 0 0 0 0 0 0 
3.5104e-10 0 0 0 0 0 0 0 6.42557e-07 
0 0 0 4.14421e-10 0 0 0 0 0 
0 6.50396e-07 7.79911e-09 0 0 0 0 0 0 
5.67683e-09 1.79199e-09 0 0 0 0 0 0 0 
0 0 0 0 0 0 0 0 0 
0 0 0 0 0 0 0 0 0 
6.53866e-10 0 0 0 0 0 0 1.44407e-09 0 
0 6.27297e-10 0 0 0 0 0 0 0 
1.64885e-09 0 0 0 0 7.632e-10 0 0 0 
0 0 0 0 0 0 0 1.52543e-10 3.38069e-09 
0 0 2.28456e-09 0 3.07445e-10 1.12677e-09 6.41198e-07 1.97343e-09 0 
1.18074e-09 0 0 0 0 0 0 2.77358e-09 0 
0 0 0 0 0 0 4.72541e-09 0 0 
0 0 1.6079e-09 0 3.56548e-09 0 0 0 0 
1.19038e-09 0 7.19673e-07 1.81039e-09 0 2.71302e-10 0 0 0 
0 0 0 0 0 0 0 0 0 
0 0 0 0 0 0 0 0 0 
0 1.06373e-09 0 1.26804e-09 1.40113e-09 0 0 1.16919e-09 0 
0 0 0 2.00067e-10 0 0 0 0 0 
0 0 2.8653e-09 0 1.19232e-09 0 1.17296e-09 0 0 
0 0 0 0 0 0 0 2.19179e-09 0 
4.40786e-09 7.0059e-11 0 0 2.3614e-09 0 7.07204e-10 2.62318e-09 0 
0 0 1.00441e-09 0 0 0 0 6.01084e-10 0 
5.64938e-10 0 1.95542e-09 0 0 0 9.61288e-09 6.49345e-07 5.17628e-09 
0 0 0 0 0 0 0 6.85968e-10 0 
0 0 4.1157e-09 0 0 0 0 0 0 
0 0 0 0 0 0 0 0 0 
0 0 0 0 0 0 0 0 0 
0 0 0 0 0 0 0 0 0 
7.12046e-07 0 0 0 0 0 0 0 0 
0 0 4.31801e-09 6.42814e-07 0 0 1.88412e-09 0 6.93424e-07 
0 2.66772e-09 1.48354e-09 0 0 0 0 1.16338e-09 0 
0 0 0 0 0 0 0 0 0 
0 0 0 0 0 0 0 0 0 
0 0 1.37731e-09 0 0 0 0 0 3.41958e-09 
0 0 2.93959e-09 0 0 0 0 0 0 
0 0 0 3.10506e-09 0 0 1.26072e-09 0 0 
0 0 0 0 0 0 0 0 0 
0 0 0 0 0 0 0 0 0 
0 0 0 6.5467e-07 0 0 0 0 7.67662e-07 
0 0 0 0 0 0 0 0 0 
0 0 1.15019e-09 1.37364e-09 0 0 0 0 0 
0 0 6.99911e-07 0 0 3.75508e-09 0 0 0 
0 1.33927e-09 3.2254e-09 0 0 7.13455e-10 0 0 0 
1.04691e-09 0 0 0 0 0 0 0 3.22157e-10 
0 1.10872e-09 0 0 0 0 0 0 0 
0 0 0 0 0 6.51221e-07 0 0 0 
0 4.01954e-10 0 0 1.018e-09 0 0 0 0 
0 0 0 0 0 0 0 0 0 
0 0 0 0 0 0 0 0 0 
0 0 1.79294e-09 3.67051e-09 0 0 0 0 0 
0 0 3.90285e-09 2.2848e-09 0 0 8.18501e-10 0 0 
0 0 0 0 0 0 0 0 0 
1.99126e-09 0 0 0 0 0 2.7191e-09 5.99166e-09 0 
0 6.0476e-09 6.98289e-07 0 0 0 0 0 0 
4.52704e-10 0 0 0 0 2.82647e-09 4.25887e-09 0 0 
0 0 0 0 0 0 1.81691e-09 0 0 
0 0 2.3387e-09 0 0 0 0 0 0 
0 0 0 0 0 6.67625e-07 0 0 0 
3.40195e-10 0 0 0 0 0 0 0 0 
0 0 0 0 0 0 0 0 0 
0 0 0 6.85007e-10 5.13281e-10 0 0 0 7.04496e-07 
9.29092e-09 0 7.35876e-07 4.35965e-09 2.45155e-09 0 0 0 0 
0 9.79506e-10 0 0 0 0 0 8.81372e-10 0 
0 1.11559e-09 1.39774e-09 0 0 0 0 0 0 
0 0 0 7.75683e-09 0 0 0 0 0 
0 0 0 0 1.22912e-09 0 6.54185e-07 4.90965e-09 2.97662e-09 
0 0 0 0 0 0 6.45949e-07 2.14758e-09 1.86022e-09 
0 0 7.03608e-09 3.64135e-09 2.5712e-09 0 0 0 4.66966e-10 
0 0 1.0696e-09 0 0 0 0 3.76259e-10 0 
0 0 0 0 0 0 0 0 0 
0 0 0 0 0 0 0 0 0 
0 0 0 0 0 0 2.52491e-09 2.63717e-09 0 
0 0 0 0 0 0 0 1.07564e-09 3.01724e-09 
0 0 0 0 0 0 0 0 0 
0 0 0 0 0 0 0 0 0 
6.95548e-07 0 0 7.17182e-07 4.72919e-09 0 0 0 0 
0 0 0 0 0 0 0 3.09211e-09 0 
0 0 0 1.8807e-09 1.5269e-09 0 4.70777e-09 0 3.59841e-09 
0 0 4.65074e-09 6.46163e-07 0 0 1.26612e-09 0 1.10372e-09 
0 0 0 0 2.30083e-09 0 0 0 0 
0 0 0 0 0 0 0 0 0 
0 0 0 0 0 0 0 0 0 
0 0 0 0 0 0 0 0 0 
0 0 0 1.87725e-09 1.2615e-09 0 1.8899e-09 3.28338e-09 3.1035e-10 
0 8.63858e-07 0 0 0 0 0 0 0 
0 0 0 0 0 0 0 7.14496e-07 0 
5.92511e-09 0 0 0 0 0 0 0 0 
0 0 0 8.71779e-10 1.70178e-09 0 1.87115e-09 4.17397e-09 0 
2.35737e-09 0 0 0 0 0 0 3.80368e-10 0 
0 0 0 0 0 0 0 9.52187e-10 0 
3.92825e-10 0 0 0 2.99623e-09 0 0 6.70781e-07 0 
0 0 0 0 0 0 0 0 0 
0 0 0 0 0 0 0 0 0 
0 0 0 0 0 0 0 0 0 
0 0 1.32409e-09 0 1.53995e-09 0 0 0 0 
3.77187e-09 1.53197e-09 8.76921e-07 0 0 0 0 0 4.01081e-10 
0 0 0 0 0 2.95909e-09 0 6.20605e-09 0 
0 0 3.02205e-09 2.97029e-09 0 0 0 0 0 
0 0 0 0 0 1.34426e-09 0 5.3614e-07 0 
0 3.48089e-09 0 0 0 0 2.71704e-09 3.27685e-09 0 
0 0 1.04308e-09 2.25199e-09 4.11695e-10 0 0 0 0 
0 0 0 0 0 0 1.92406e-09 0 0 
0 0 0 0 0 0 0 0 0 
0 0 0 0 0 0 0 0 0 
0 0 0 0 0 0 0 0 0 
0 0 0 0 0 0 0 0 0 
0 0 0 0 0 0 6.78667e-07 4.26787e-09 0 
0 6.65153e-10 0 0 0 0 0 0 0 
0 0 0 0 0 0 0 0 0 
0 0 0 0 0 0 0 0 5.60241e-09 
0 0 0 0 7.4126e-07 0 7.96228e-07 0 0 
0 0 0 0 0 0 0 0 0 
0 0 0 0 0 3.6546e-09 6.51618e-07 0 0 
0 0 0 0 0 0 0 0 0 
0 0 0 0 0 0 0 0 0 
0 0 0 0 0 0 0 0 0 
0 0 0 0 0 0 0 0 0 
2.25758e-09 1.60553e-09 0 0 6.87173e-10 4.83883e-09 1.4287e-09 4.81749e-09 8.52249e-10 
0 1.74476e-09 0 0 0 0 0 0 0 
8.90432e-07 9.04457e-07 0 3.89754e-09 0 5.43692e-10 0 0 4.79697e-09 
0 0 0 0 0 0 0 0 0 
4.59013e-10 1.71699e-09 2.01068e-09 0 0 0 0 3.90862e-09 0 
1.54847e-09 0 0 0 0 1.07465e-09 0 0 0 
1.06057e-10 0 0 0 0 0 2.56518e-09 2.43058e-09 0 
2.39804e-09 2.84421e-09 0 0 0 0 0 0 0 
0 0 0 0 0 0 0 0 0 
0 0 0 0 0 0 0 0 0 
0 0 0 0 0 0 0 0 0 
0 0 0 2.37202e-09 0 0 0 0 0 
0 5.88387e-10 0 0 0 0 0 0 0 
0 0 0 0 0 0 0 0 3.74971e-09 
0 0 2.24104e-09 0 3.79838e-09 0 0 0 0 
0 2.72125e-09 0 0 0 0 0 0 3.63727e-09 
0 0 0 7.28364e-07 0 1.59515e-09 0 0 0 
0 0 0 0 0 0 0 0 0 
0 0 0 0 0 0 0 0 0 
0 0 0 0 0 0 0 0 0 
0 0 0 0 0 0 0 0 0 
0 0 0 0 0 0 0 0 0 
0 0 0 3.82147e-09 7.07961e-07 0 9.08913e-09 0 0 
4.28318e-09 3.63615e-09 0 2.41539e-09 0 0 0 0 1.14495e-09 
0 0 0 0 0 0 0 0 0 
0 7.5443e-07 0 0 0 6.5406e-07 0 0 0 
0 7.55354e-10 0 0 0 0 0 0 0 
8.22599e-07 0 0 0 2.83965e-09 0 0 0 4.3882e-10 
0 0 0 0 0 0 0 0 0 
0 0 0 2.1039e-10 0 0 0 0 0 
0 0 0 0 0 0 0 0 0 
0 0 0 0 0 0 0 0 0 
0 0 0 6.43932e-10 0 0 0 0 0 
0 0 0 0 0 0 0 7.71091e-07 4.54517e-09 
0 0 0 6.49266e-07 0 0 1.47456e-09 0 0 
0 1.64508e-09 0 0 7.05132e-07 0 0 0 0 
0 0 1.07496e-08 0 0 0 4.3866e-09 0 0 
0 0 0 0 0 0 7.93975e-10 0 0 
0 0 9.48694e-10 0 7.40556e-07 6.74996e-09 0 0 0 
0 0 0 0 0 0 0 0 0 
0 0 0 0 0 0 0 0 0 
0 0 0 0 0 0 0 0 0 
0 0 0 0 0 0 0 0 0 
0 0 0 0 0 0 1.12777e-09 0 0 
0 0 0 0 3.02649e-10 0 0 0 5.54485e-09 
0 0 0 3.6556e-09 4.81695e-09 0 1.34604e-09 0 0 
0 0 4.93533e-10 0 0 0 0 9.87495e-10 0 
0 8.70772e-07 0 8.12396e-07 2.56293e-09 4.27457e-09 0 3.77901e-10 1.96857e-09 
1.38348e-09 0 0 0 0 0 0 0 0 
0 0 2.65539e-09 0 0 0 0 0 0 
0 0 0 0 0 0 0 0 0 
0 0 0 0 0 0 0 0 0 
0 0 0 0 0 0 0 0 0 
0 0 0 0 0 0 0 0 0 
0 0 0 0 0 0 0 0 0 
5.19663e-10 0 0 2.66163e-10 0 0 2.10295e-09 2.20798e-09 1.05828e-08 
7.26075e-07 0 0 1.59476e-09 0 0 0 0 0 
0 0 0 0 4.67726e-10 0 0 9.36107e-09 0 
0 8.49477e-07 0 0 0 0 0 0 0 
0 0 0 0 0 6.62147e-07 0 3.60149e-09 0 
0 1.93365e-09 0 0 4.32513e-09 0 0 0 0 
0 4.30502e-10 0 0 0 0 0 0 0 
0 0 6.08223e-10 0 0 0 0 7.15111e-10 0 
0 0 0 0 0 0 0 0 0 
0 0 0 0 0 0 0 0 0 
0 0 0 0 0 0 0 6.39927e-07 0 
0 0 0 0 0 0 0 0 0 
0 0 0 0 1.89709e-09 1.18914e-09 0 0 3.89813e-10 
0 0 0 0 0 0 0 0 0 
7.47025e-07 0 0 0 0 0 0 0 0 
0 0 0 0 0 0 5.06276e-09 0 3.66889e-09 
0 0 0 0 0 0 2.69348e-09 0 1.64037e-09 
9.67608e-10 0 0 0 0 0 0 0 0 
0 0 0 0 0 0 0 0 0 
0 0 0 0 0 0 0 0 0 
0 0 0 0 0 0 0 0 0 
0 0 0 0 0 0 2.2074e-09 2.30421e-09 0 
0 0 0 0 0 5.00224e-10 0 5.8332e-10 0 
1.53404e-09 1.38783e-09 1.6841e-10 0 0 0 0 0 0 
0 0 0 0 0 9.2811e-10 0 2.9477e-09 0 
0 0 0 0 0 0 0 1.50485e-09 0 
0 0 0 0 0 0 0 0 0 
4.50656e-09 0 0 8.37296e-07 0 8.33228e-07 9.2627e-09 0 0 
0 0 0 0 0 0 0 0 0 
3.87848e-10 0 0 0 3.64673e-09 0 0 0 0 
2.04948e-09 0 0 0 0 0 0 0 0 
0 0 0 0 0 0 0 0 0 
0 0 0 0 0 0 0 0 0 
0 0 0 0 1.62353e-09 0 0 0 0 
0 0 0 0 0 0 0 0 0 
0 0 0 0 0 0 0 0 0 
1.91938e-09 0 4.75472e-09 0 0 4.52282e-09 0 0 0 
0 0 0 0 0 0 0 0 0 
6.70155e-07 2.72546e-09 0 0 0 8.71672e-07 0 3.79102e-09 2.86974e-09 
6.96101e-10 0 0 0 0 0 0 0 3.19198e-10 
0 0 0 0 4.19425e-09 0 0 0 7.10411e-07 
0 0 0 3.84164e-10 0 0 0 0 0 
0 0 0 0 0 0 0 0 0 
0 0 0 0 0 0 0 0 0 
0 0 0 0 0 0 0 6.40058e-07 0 
0 0 0 0 0 0 0 3.65525e-10 0 
0 0 0 0 6.44361e-07 0 0 0 0 
0 0 0 0 8.98047e-07 8.8426e-07 0 0 0 
0 0 0 0 0 0 0 0 0 
2.96834e-09 9.34437e-09 0 0 0 1.7395e-09 0 0 1.72971e-09 
0 0 0 0 0 5.18887e-10 0 0 0 
1.47163e-09 0 0 0 0 5.60216e-09 6.93384e-07 0 0 
0 0 4.30574e-10 0 0 0 0 0 0 
0 0 0 0 0 0 0 0 0 
0 0 0 0 0 0 0 0 0 
0 0 0 0 0 0 0 1.30489e-09 1.88438e-09 
0 0 0 0 0 0 0 0 0 
0 0 0 0 0 0 0 2.28428e-09 0 
0 0 0 0 0 1.13089e-08 0 0 0 
0 0 0 0 0 0 0 0 8.91029e-10 
0 0 0 0 0 0 0 0 0 
0 0 3.16666e-10 0 0 0 0 0 0 
0 0 1.67921e-09 0 0 0 0 1.82909e-09 0 
4.96842e-09 0 7.04786e-07 0 0 0 0 0 0 
0 0 0 0 0 0 0 0 0 
0 0 0 0 0 0 0 0 0 
0 0 0 0 0 0 0 0 0 
0 0 0 0 0 0 0 0 0 
0 0 0 0 0 2.56251e-09 0 0 0 
0 0 0 0 7.30806e-10 0 0 9.45132e-10 3.32815e-09 
0 0 0 0 6.98033e-10 0 0 0 0 
0 0 0 0 0 0 1.72734e-09 0 2.97345e-09 
2.75723e-09 0 0 0 0 0 0 0 0 
0 0 0 0 0 0 6.81496e-07 1.01946e-09 1.53882e-09 
0 0 4.03141e-09 2.52223e-09 0 0 0 0 0 
0 0 0 0 0 0 0 0 0 
0 0 0 0 0 0 0 0 0 
0 0 0 0 0 0 0 0 0 
0 0 0 5.31451e-10 0 0 0 0 0 
0 0 0 0 0 0 0 1.85147e-09 0 
0 0 0 0 1.93937e-09 3.24942e-09 6.72006e-07 0 0 
0 0 1.22407e-09 0 0 0 0 0 0 
0 0 0 0 0 0 0 0 0 
0 0 0 0 0 0 3.7519e-09 0 1.11634e-09 
1.2094e-09 0 0 6.49808e-07 0 1.71721e-09 0 0 0 
3.63892e-09 0 0 0 0 2.3928e-09 0 0 0 
0 0 0 0 0 0 0 0 0 
0 0 0 0 0 0 0 0 0 
0 0 0 0 0 1.85429e-09 0 0 0 
6.16453e-10 0 0 0 0 0 0 0 0 
0 0 0 0 0 0 6.44366e-07 0 0 
0 0 0 0 0 0 0 0 3.13506e-09 
0 0 0 0 0 0 0 0 0 
0 0 0 0 0 0 0 0 0 
0 0 1.40537e-09 0 0 2.27656e-09 5.7286e-09 6.45114e-07 0 
0 0 0 0 8.72632e-09 0 0 0 0 
0 1.55126e-09 0 0 0 0 0 0 0 
0 5.09361e-10 0 0 0 0 0 0 0 
0 0 0 0 0 0 0 0 0 
0 0 0 0 0 0 6.40599e-07 4.28459e-09 1.63878e-09 
0 0 0 0 0 0 0 0 0 
0 0 0 0 0 1.13566e-09 2.18842e-09 0 0 
0 0 6.11363e-10 0 0 0 0 1.23548e-09 0 
2.52443e-09 0 0 8.05425e-10 0 0 1.48232e-09 6.71533e-07 0 
0 7.93385e-10 0 0 0 0 0 0 0 
0 0 0 0 0 0 0 2.68891e-09 0 
0 1.15411e-10 0 0 0 0 0 0 1.11261e-09 
0 0 0 4.04313e-09 0 0 0 6.55661e-07 0 
0 0 0 0 0 0 0 0 0 
0 0 0 0 0 0 0 0 0 
0 0 0 0 8.51396e-10 0 0 0 2.72452e-09 
0 0 0 0 0 0 0 0 0 
0 0 0 0 0 0 0 0 7.11633e-10 
0 1.33269e-09 6.8982e-10 5.92061e-10 0 0 0 0 0 
0 0 0 0 6.8817e-10 0 2.3518e-09 0 0 
0 0 0 0 0 0 0 0 0 
0 1.56098e-10 0 0 0 6.44392e-07 4.50383e-09 4.40159e-09 0 
0 0 0 0 0 9.81182e-10 0 0 0 
3.71734e-09 0 6.52194e-07 3.09747e-09 0 1.86312e-09 0 1.58494e-09 0 
0 0 0 0 0 0 0 0 0 
0 0 0 0 0 0 0 0 0 
0 0 0 0 0 0 0 0 0 
1.76148e-09 0 0 0 0 0 0 0 0 
0 0 2.75599e-10 0 6.49459e-10 0 0 0 0 
1.32002e-09 0 9.08026e-10 0 0 0 0 0 0 
0 0 0 6.34903e-10 0 0 0 0 0 
0 0 0 9.75999e-07 9.04682e-07 0 0 4.80034e-10 0 
0 0 0 0 0 0 0 0 0 
1.08218e-09 0 0 1.52695e-10 0 0 6.29641e-10 0 0 
0 0 1.15039e-09 0 0 0 0 0 0 
0 0 0 0 0 0 0 0 0 
0 0 0 0 0 0 0 0 0 
0 0 0 0 0 0 0 0 2.47089e-09 
9.07887e-10 0 0 0 0 0 0 0 0 
0 0 0 0 0 0 0 0 0 
0 3.69566e-10 0 0 0 0 0 7.1213e-10 3.38375e-10 
6.2582e-10 0 1.1297e-10 0 0 0 0 0 0 
0 0 0 8.22066e-07 0 0 7.4203e-09 0 0 
0 0 0 0 0 0 0 0 0 
0 0 0 0 0 0 0 0 0 
3.01591e-09 0 1.73907e-09 0 0 0 1.29332e-09 0 0 
0 0 1.96623e-09 0 0 0 0 0 0 
0 0 0 0 0 0 0 0 0 
0 0 0 0 0 0 0 0 0 
0 0 0 0 0 0 0 0 0 
8.67898e-10 0 0 0 0 0 2.12536e-09 0 3.73292e-10 
0 0 0 2.98843e-10 0 0 4.2277e-09 6.42763e-07 0 
0 0 0 0 1.77877e-09 0 0 0 0 
6.64883e-07 0 3.8587e-09 0 0 0 0 0 0 
0 0 0 0 0 0 0 0 0 
0 0 5.46564e-10 5.72529e-10 0 0 0 0 5.15371e-09 
6.60991e-07 0 0 1.07807e-09 0 0 5.94503e-11 0 0 
2.05165e-09 6.52038e-07 0 0 0 0 0 0 0 
0 0 0 0 0 0 0 0 0 
0 0 0 0 0 0 0 0 0 
0 0 0 6.15868e-09 0 0 0 0 0 
0 0 0 0 0 6.23402e-09 6.72767e-07 0 0 
5.46084e-10 0 0 0 0 0 0 0 0 
2.59771e-09 0 0 1.538e-11 0 0 2.88097e-10 1.74726e-09 0 
0 5.77686e-09 0 0 0 0 0 3.66855e-09 0 
0 8.15322e-10 0 0 0 0 0 0 0 
0 0 0 0 0 0 0 0 0 
0 0 0 2.71767e-09 0 0 0 0 2.00198e-09 
0 1.11019e-08 0 0 0 0 0 0 0 
0 0 0 0 0 0 0 0 0 
0 0 0 0 0 0 0 0 0 
0 0 0 6.40588e-07 0 0 0 0 0 
0 0 0 0 6.73654e-07 0 0 0 0 
0 0 0 0 0 0 0 3.69883e-09 0 
2.28231e-09 0 0 0 0 0 1.21631e-09 0 6.51864e-07 
4.5558e-09 3.38438e-09 0 0 0 0 0 1.79095e-09 0 
0 0 0 0 0 0 0 0 0 
0 0 0 0 0 0 0 0 2.15058e-09 
0 0 0 0 0 0 0 0 0 
0 0 2.50232e-09 0 0 0 0 0 0 
0 0 0 0 0 0 0 0 0 
0 0 0 0 0 0 0 0 0 
0 0 0 0 1.89649e-09 0 0 0 0 
0 0 0 7.91603e-10 0 0 1.30128e-09 0 0 
0 2.05791e-09 0 0 0 0 3.71891e-09 0 0 
2.36724e-09 0 9.29229e-10 0 0 0 0 0 0 
0 2.29739e-09 1.34477e-09 0 0 0 0 0 1.11355e-09 
0 0 1.70118e-09 6.63219e-07 5.21527e-09 0 0 0 0 
0 0 0 0 0 0 0 0 0 
0 0 0 0 0 1.48341e-09 0 2.15971e-09 0 
6.47796e-07 0 0 0 1.81071e-09 0 0 0 0 
0 0 0 0 0 0 0 0 0 
0 0 0 0 0 0 0 0 0 
0 0 0 7.39763e-10 0 7.5552e-10 0 0 1.02704e-09 
4.95767e-10 7.45873e-10 0 3.16242e-09 0 0 0 0 0 
2.28928e-09 2.48185e-09 7.3101e-07 3.63862e-09 0 3.4276e-09 0 6.57991e-07 2.54205e-09 
0 0 0 4.39061e-10 1.41848e-09 2.33399e-09 1.34274e-09 0 0 
0 2.21168e-09 0 5.05503e-10 0 0 0 0 0 
0 0 0 0 0 0 0 0 0 
0 0 0 0 0 0 0 0 4.25972e-10 
0 0 0 9.72835e-07 1.07375e-06 0 0 0 0 
0 0 0 0 4.67513e-10 0 0 0 0 
0 0 0 0 0 0 0 0 0 
0 0 0 0 0 0 0 0 0 
0 0 0 0 0 0 0 0 0 
0 0 0 0 0 7.01609e-07 2.22732e-09 0 1.93712e-09 
0 0 4.34657e-09 1.31943e-09 0 0 0 0 1.97203e-09 
2.45334e-09 0 0 0 0 6.66629e-07 1.7944e-09 1.39662e-09 1.64349e-09 
0 0 0 0 0 0 0 0 0 
0 0 0 0 0 0 3.90722e-09 0 0 
0 0 0 0 0 0 0 0 0 
0 0 0 0 0 9.76709e-07 0 0 4.12225e-09 
1.64729e-09 0 0 0 0 1.2815e-09 0 0 7.59263e-07 
0 0 1.51034e-09 4.33583e-10 0 0 0 0 0 
0 0 0 0 0 0 0 0 0 
0 0 0 0 0 0 0 0 0 
0 0 0 0 0 0 0 0 0 
0 2.44398e-09 0 0 7.36611e-07 0 2.06531e-09 0 2.97716e-09 
8.52597e-10 0 0 4.00053e-09 0 0 0 0 0 
2.46662e-09 0 0 4.37812e-10 0 7.81423e-10 0 8.1634e-10 0 
0 0 0 0 0 0 0 6.74744e-07 0 
0 2.0168e-09 0 0 0 0 0 0 0 
0 0 0 1.49443e-09 0 0 0 0 0 
0 3.94443e-09 0 0 0 0 0 0 0 
0 7.62902e-07 0 0 0 0 0 0 0 
0 0 0 0 0 0 0 0 0 
0 0 0 0 0 0 0 0 0 
1.22174e-10 0 5.72026e-10 0 0 6.53047e-09 6.90556e-07 3.31441e-09 0 
1.64239e-09 0 0 2.28228e-09 0 0 4.09015e-10 0 1.63967e-09 
0 0 3.99995e-09 6.59164e-07 1.12589e-09 1.15797e-09 0 0 0 
0 0 1.31105e-09 0 1.57716e-09 0 7.72252e-10 0 0 
0 0 2.40955e-09 7.56992e-07 8.30483e-09 0 7.56276e-10 0 0 
0 0 7.56521e-09 0 0 0 0 0 3.75831e-10 
0 4.85068e-10 1.34012e-09 0 0 0 9.71874e-10 4.46456e-09 8.70287e-10 
0 6.62598e-07 3.28238e-09 2.12915e-09 0 1.41738e-09 0 0 0 
0 0 0 3.03485e-09 0 0 0 0 0 
0 0 0 0 0 0 0 0 0 
0 0 0 0 0 0 0 0 0 
0 0 0 0 0 0 2.96356e-09 0 0 
0 0 0 7.5738e-10 0 0 4.97503e-10 0 3.09783e-09 
0 0 0 0 0 1.00008e-08 0 1.36446e-09 0 
6.66799e-07 0 2.10216e-09 0 0 2.82129e-09 0 0 0 
0 0 0 0 0 7.58968e-07 0 1.62288e-09 0 
0 0 0 4.3808e-09 0 0 0 0 0 
0 0 0 0 0 1.16135e-10 1.96789e-09 2.96168e-10 0 
0 2.87548e-09 0 0 0 0 0 0 0 
1.38342e-10 0 0 0 2.77546e-09 0 0 0 0 
0 0 0 0 0 0 0 0 0 
0 0 0 0 0 0 0 0 0 
0 0 0 0 0 0 0 0 0 
0 1.38137e-09 0 2.56506e-10 4.89664e-10 0 0 0 6.68703e-07 
0 0 1.67802e-09 0 0 0 0 4.06506e-09 0 
0 0 5.95818e-10 2.75552e-09 0 0 6.56818e-07 0 0 
0 0 0 1.70317e-09 0 0 0 0 0 
0 0 0 0 9.26096e-07 9.53994e-07 1.78675e-09 0 0 
0 0 0 6.52358e-10 6.50958e-07 0 0 0 0 
0 0 2.95854e-09 0 0 0 0 0 0 
0 0 5.46272e-09 0 0 0 0 0 0 
0 0 0 0 0 0 0 0 0 
0 0 0 0 0 0 0 0 0 
0 0 0 0 0 0 0 0 0 
0 0 0 5.09946e-10 0 0 0 0 0 
0 0 0 0 0 0 0 0 0 
0 0 0 0 0 8.93269e-10 0 0 0 
1.73747e-09 1.39098e-09 0 0 0 0 1.96196e-09 0 1.12678e-09 
0 0 0 0 0 0 0 0 0 
0 0 0 0 0 4.23831e-09 2.97982e-09 0 0 
1.57281e-09 0 0 0 0 1.68809e-10 0 4.68513e-10 0 
3.87218e-09 0 0 5.06138e-09 8.14732e-07 0 0 0 0 
0 0 0 0 0 0 0 0 0 
0 0 0 0 0 0 0 0 0 
0 0 0 0 2.35898e-10 0 0 0 0 
0 0 0 0 0 0 0 9.34822e-10 0 
0 0 0 1.05667e-09 0 0 0 0 0 
0 0 0 0 0 3.45799e-09 3.18126e-09 0 2.69001e-09 
0 1.54558e-09 1.33693e-09 0 0 0 0 0 0 
0 0 0 0 0 0 0 9.92272e-07 9.87615e-09 
0 0 0 0 2.44933e-09 0 0 0 2.46086e-09 
7.97098e-10 0 0 2.18473e-09 0 0 0 0 0 
0 0 3.99159e-09 0 9.73027e-07 0 0 0 1.12462e-09 
0 0 0 0 0 0 0 0 0 
0 0 0 0 0 0 0 0 0 
0 0 0 0 0 0 0 0 1.72419e-09 
5.00606e-09 0 0 0 5.25781e-10 0 0 0 6.4693e-07 
4.55425e-09 5.16183e-10 0 1.96496e-09 0 0 1.91129e-09 0 0 
0 0 0 0 0 1.08064e-09 0 6.66434e-07 0 
0 0 0 3.57744e-10 0 0 0 0 0 
9.23963e-10 0 0 0 2.37652e-09 0 0 0 9.31437e-07 
0 0 0 0 7.39967e-07 0 0 0 0 
0 0 0 0 0 0 0 1.90273e-09 2.93111e-09 
0 6.71952e-07 1.49333e-09 3.87017e-10 0 9.10199e-07 0 0 6.91779e-10 
1.14935e-09 0 0 0 0 0 0 0 0 
0 0 0 0 0 0 0 0 0 
0 0 0 0 0 0 0 0 0 
0 0 0 7.16124e-10 0 0 0 0 0 
2.95246e-09 1.96136e-09 0 1.00325e-09 0 0 1.4573e-09 0 0 
0 0 0 0 0 0 0 0 1.137e-09 
0 1.26727e-09 2.65534e-09 0 0 2.4606e-09 0 0 0 
1.12195e-09 0 0 2.035e-09 0 8.28371e-10 1.51076e-09 0 0 
6.20629e-09 0 0 9.39397e-07 0 1.31047e-09 0 3.73487e-09 0 
9.59533e-10 4.50642e-09 0 2.23097e-09 3.05564e-09 0 6.60418e-07 0 0 
2.19396e-09 0 3.96454e-09 1.66797e-09 3.47135e-09 0 0 0 0 
0 0 0 0 0 0 0 0 0 
0 0 0 0 0 0 0 0 0 
0 0 0 0 0 0 0 0 0 
0 6.1135e-09 6.71925e-07 5.52061e-09 0 4.55389e-10 0 0 0 
2.66145e-10 6.61532e-10 1.68358e-09 8.37533e-10 0 0 0 0 6.47527e-07 
0 0 0 0 0 0 0 0 0 
0 0 6.76617e-09 0 0 4.06807e-09 0 1.28042e-09 0 
0 1.56237e-09 0 0 0 9.94544e-10 0 0 0 
0 0 1.43573e-09 0 9.04118e-07 0 0 4.1823e-09 0 
6.90778e-07 0 1.39883e-09 6.80755e-07 4.27111e-09 0 0 4.93081e-09 2.70659e-09 
0 2.31482e-09 0 0 0 0 0 0 2.01567e-09 
1.74962e-09 8.42388e-10 0 0 0 0 0 0 0 
0 0 0 0 0 0 0 0 0 
0 0 0 0 0 0 0 0 0 
0 0 0 0 0 6.56212e-10 1.28814e-10 0 0 
0 0 0 0 0 0 0 0 0 
1.18492e-09 0 0 0 4.97903e-10 0 0 0 0 
1.36599e-09 0 0 0 0 0 7.58227e-07 0 0 
0 1.43875e-09 0 0 0 0 0 0 0 
0 0 0 0 0 0 0 1.17044e-09 0 
0 7.01034e-10 0 9.65636e-10 4.41086e-09 0 5.87661e-09 0 0 
0 0 0 0 0 5.25247e-09 4.14868e-09 0 9.20011e-10 
0 0 0 0 0 0 0 0 0 
0 0 0 0 0 0 0 0 0 
0 0 0 0 0 0 0 0 0 
0 0 0 0 0 3.72234e-09 0 0 0 
3.81505e-10 0 3.13198e-09 0 0 0 4.75512e-11 0 1.12703e-09 
0 0 0 0 0 0 0 0 0 
4.46698e-10 0 0 1.45337e-09 0 0 0 0 2.81274e-09 
3.09892e-09 0 0 0 6.74262e-07 0 0 0 0 
0 0 1.45673e-09 0 0 0 0 0 0 
0 0 5.89366e-10 0 0 0 0 2.35291e-09 0 
9.86503e-10 0 4.19091e-09 0 0 7.71755e-07 0 0 0 
0 0 0 0 0 0 0 0 0 
0 0 0 0 0 0 0 0 0 
0 0 0 0 0 0 0 1.83238e-10 0 
9.55814e-10 0 0 8.68163e-07 8.84607e-07 0 0 0 0 
0 0 0 6.42792e-09 0 0 0 0 2.92336e-10 
8.16482e-10 0 0 1.91131e-09 0 0 0 0 0 
0 0 0 0 0 0 0 8.66547e-07 1.19616e-09 
0 0 0 0 4.9022e-09 0 0 0 6.69371e-07 
0 0 0 0 6.55775e-07 0 0 0 0 
3.82145e-10 0 0 2.54953e-09 0 0 0 0 0 
0 0 6.78616e-07 0 0 0 0 7.60081e-07 0 
0 0 3.84487e-10 0 0 0 0 0 0 
0 0 0 0 0 0 0 0 0 
0 0 0 0 0 0 0 0 0 
0 1.57336e-09 0 0 0 0 5.61129e-09 0 0 
1.74532e-09 0 0 0 0 6.40935e-07 7.46364e-09 3.23541e-09 0 
0 8.98612e-10 0 1.8976e-09 6.46921e-07 0 1.72462e-09 0 0 
3.29918e-10 0 0 0 0 0 0 0 0 
0 0 0 0 4.6741e-09 6.70585e-10 0 0 7.42785e-10 
0 5.63787e-09 0 0 0 0 0 1.07128e-09 0 
1.7718e-09 0 6.54258e-07 0 0 0 2.47434e-09 0 0 
6.7835e-07 0 0 2.71154e-09 0 1.41313e-09 0 0 0 
0 0 0 0 0 0 0 0 0 
0 0 0 0 0 0 0 0 0 
0 0 0 0 0 0 0 0 0 
0 0 6.84377e-10 0 1.86086e-09 0 0 0 0 
0 0 1.46861e-09 0 0 0 1.67548e-09 0 0 
0 0 0 0 0 3.16327e-09 0 0 0 
0 4.92322e-10 0 0 0 0 0 9.80946e-07 1.14323e-06 
1.03669e-06 0 0 1.79818e-09 7.65529e-07 0 0 3.20395e-09 0 
0 0 0 0 0 0 0 0 0 
0 0 2.08747e-09 2.42729e-09 0 1.02752e-09 3.41862e-09 0 0 
1.22506e-09 0 0 0 0 0 0 1.62927e-09 0 
3.06316e-09 0 0 0 0 0 0 0 0 
0 0 0 0 0 0 0 0 0 
0 0 0 0 0 0 0 0 0 
0 0 0 0 0 3.16289e-09 0 0 7.27142e-09 
8.67115e-07 0 0 0 0 0 0 0 0 
0 0 0 0 0 0 0 0 1.0362e-09 
0 0 0 0 0 0 0 0 0 
2.19534e-09 0 0 0 0 0 5.94874e-09 7.27017e-07 0 
0 3.89879e-09 0 0 0 5.31912e-10 0 0 0 
0 9.61198e-10 0 0 0 0 0 0 6.57686e-07 
0 0 0 0 4.24166e-10 0 0 5.21115e-10 0 
0 0 0 0 0 0 0 0 0 
0 0 0 0 0 0 0 0 0 
0 0 0 0 0 0 0 0 0 
0 0 0 0 0 0 0 0 0 
0 8.57199e-07 0 7.00843e-10 0 0 0 0 0 
0 0 0 0 0 0 9.64565e-10 0 1.0676e-09 
0 0 0 0 0 0 9.9676e-10 0 0 
0 1.71525e-09 0 2.34895e-09 0 7.32755e-07 0 0 4.11133e-09 
0 0 0 0 4.36593e-10 0 0 0 0 
4.82865e-10 0 0 0 0 0 0 0 0 
0 0 2.05263e-09 0 0 0 0 0 0 
0 0 0 4.59896e-10 0 0 0 0 0 
0 0 0 0 0 0 0 0 0 
0 0 0 0 0 0 0 0 0 
0 0 0 0 0 0 0 0 0 
0 0 1.81551e-08 0 2.52809e-09 0 0 0 0 
0 0 0 0 0 0 0 0 0 
0 0 0 0 0 1.25168e-09 0 2.54013e-09 0 
4.35617e-09 7.03547e-07 2.92761e-09 0 0 0 6.79559e-09 3.94769e-09 5.89749e-09 
0 0 0 0 8.58072e-07 0 0 0 0 
0 0 0 0 0 0 0 0 0 
0 0 1.55492e-09 7.02977e-10 0 2.24912e-09 2.27451e-09 0 0 
1.22037e-09 0 0 0 0 0 0 0 0 
0 0 0 0 0 0 0 0 0 
0 0 0 0 0 0 0 0 0 
0 0 0 0 0 0 0 0 0 
0 0 1.94018e-09 4.29196e-10 0 0 0 0 0 
0 3.25443e-10 0 0 0 0 0 0 0 
2.39129e-10 0 0 0 0 3.15325e-09 0 5.7973e-09 1.25435e-09 
0 0 1.96379e-09 0 9.43022e-10 1.71302e-09 0 1.919e-09 0 
1.25767e-09 0 0 0 2.63161e-09 8.54074e-07 0 3.90366e-09 1.90857e-09 
0 0 0 0 0 0 0 0 0 
0 0 0 0 5.7135e-10 5.84376e-10 0 0 2.33074e-09 
0 0 0 0 0 0 0 0 0 
0 0 0 0 0 0 0 0 0 
0 0 0 0 0 0 0 0 0 
0 0 0 0 0 0 0 4.05228e-09 0 
0 0 7.01541e-10 1.03177e-09 0 0 0 0 0 
0 3.72742e-10 0 0 0 0 0 0 0 
0 0 0 0 0 0 1.11891e-09 3.30177e-09 0 
0 0 0 1.75354e-09 0 0 0 0 0 
6.62928e-10 0 0 0 0 0 0 0 0 
0 0 0 0 0 9.02424e-10 0 0 0 
0 0 0 0 0 0 1.44619e-09 0 6.48132e-07 
0 1.6985e-09 0 0 0 0 0 0 0 
0 0 0 0 0 0 0 0 0 
0 0 0 0 0 0 0 0 0 
0 0 0 0 0 0 0 8.35787e-10 6.40138e-07 
0 0 1.16076e-09 0 0 0 2.42557e-10 0 1.21818e-09 
8.14104e-10 0 0 0 0 0 0 0 0 
0 0 0 0 4.32455e-10 0 0 0 6.67927e-10 
0 0 0 0 0 0 0 0 0 
0 0 0 0 0 1.49454e-09 0 5.07698e-09 0 
1.75125e-09 0 1.16367e-10 0 4.29974e-09 0 0 0 0 
0 0 0 0 0 0 0 0 3.10194e-09 
2.17267e-09 0 0 0 0 0 0 0 0 
0 0 0 0 0 0 0 0 0 
0 0 0 0 0 0 0 0 0 
0 0 0 0 0 0 0 0 2.21174e-09 
1.72299e-09 0 7.73574e-10 8.43299e-10 0 0 9.87606e-10 0 0 
0 0 0 0 0 0 0 0 0 
0 0 0 0 7.96551e-10 0 0 0 1.33089e-09 
0 0 0 0 0 0 0 0 0 
0 0 0 0 0 0 0 0 0 
0 0 2.77118e-09 0 1.43133e-09 6.77107e-07 0 0 0 
0 0 0 0 0 0 0 0 0 
0 0 0 0 0 0 0 1.27306e-09 0 
0 0 0 0 0 0 0 0 0 
0 0 0 0 0 0 0 0 0 
0 0 0 0 0 0 0 0 0 
0 2.11376e-09 1.90952e-09 0 0 0 0 2.88623e-09 6.54274e-07 
4.66632e-09 0 0 1.98669e-09 0 0 0 0 0 
1.64306e-10 0 0 0 0 6.95135e-10 0 0 0 
0 0 0 0 0 0 0 0 0 
0 0 0 0 0 0 0 0 0 
0 0 2.4632e-09 0 0 0 0 0 3.42622e-09 
0 0 5.60099e-10 0 0 0 0 0 0 
1.09331e-09 0 0 0 0 0 0 0 0 
0 0 0 6.85233e-10 1.4917e-10 0 0 0 0 
0 0 0 0 0 0 0 0 0 
0 0 0 0 0 0 0 0 0 
0 0 0 0 0 0 0 0 0 
0 0 4.22435e-09 2.05475e-10 6.67892e-07 0 0 1.60065e-09 0 
0 0 0 0 0 0 0 0 0 
0 0 0 0 1.125e-09 0 0 2.53941e-09 0 
0 0 0 0 0 4.2841e-10 0 0 0 
0 9.00844e-10 0 0 5.54935e-09 0 6.27556e-09 0 0 
4.65704e-09 6.06611e-10 0 0 0 0 0 0 0 
2.6778e-10 3.72023e-10 2.09583e-09 0 6.4811e-07 4.30139e-09 0 0 3.11569e-09 
0 1.95489e-09 0 0 0 0 0 0 0 
0 0 0 0 0 0 0 0 0 
0 0 0 0 0 0 0 0 0 
0 0 0 0 0 0 0 0 0 
0 0 0 0 0 0 0 0 0 
0 0 0 9.63381e-10 3.23557e-09 0 0 2.4046e-09 0 
2.35225e-09 0 0 0 0 0 3.01795e-09 6.41534e-07 0 
4.67054e-09 0 0 0 0 0 0 0 0 
6.42831e-07 4.82678e-09 0 1.67281e-09 0 0 0 0 0 
9.23606e-09 6.58087e-07 0 2.52646e-09 0 0 0 0 0 
0 0 1.03526e-09 0 0 1.50022e-09 0 0 0 
0 0 8.49827e-07 0 0 0 0 0 0 
0 0 0 0 0 0 0 0 0 
0 0 0 0 0 0 0 0 0 
0 0 0 0 0 0 0 0 0 
0 0 0 0 0 0 4.81766e-09 0 0 
1.60818e-09 3.19254e-10 0 0 6.01634e-10 0 6.65455e-07 0 3.93772e-09 
0 0 0 0 0 0 2.16261e-09 6.74862e-10 0 
0 0 0 0 1.87696e-10 0 0 0 0 
0 0 1.94005e-09 0 0 0 0 0 0 
0 0 1.87976e-09 2.69516e-09 0 0 0 0 0 
0 0 0 0 0 0 0 0 1.29886e-09 
9.46188e-10 2.69949e-09 0 8.49592e-07 5.39881e-09 0 0 0 0 
0 0 0 0 0 0 0 0 0 
0 0 0 0 0 0 0 0 0 
0 0 0 0 0 0 0 0 1.22687e-09 
0 2.1525e-09 0 0 0 0 6.88933e-07 2.69207e-09 0 
1.09053e-09 1.3433e-09 0 0 0 0 0 0 0 
0 0 0 8.0604e-07 1.04625e-09 0 0 0 0 
0 6.27567e-10 0 0 0 0 0 4.46602e-10 0 
2.40986e-09 0 0 0 0 0 0 0 0 
1.2132e-09 0 0 0 0 0 0 0 0 
0 0 0 0 0 0 0 0 0 
0 0 0 0 0 0 1.37772e-09 6.60089e-10 0 
0 0 0 0 0 0 0 0 0 
0 0 0 0 0 0 0 0 0 
0 0 0 0 0 0 3.57867e-09 1.34711e-09 0 
0 0 0 2.98363e-09 0 0 0 0 3.2944e-09 
0 0 0 0 0 0 0 0 0 
0 0 7.28726e-07 0 2.76083e-09 7.80218e-07 9.47704e-09 0 0 
1.76901e-09 1.09128e-09 0 0 0 0 0 0 0 
0 0 0 0 0 0 0 0 0 
0 0 0 0 0 0 0 0 0 
0 0 0 0 0 0 0 0 0 
0 0 0 0 0 0 2.13743e-09 2.51757e-09 0 
0 0 0 0 0 0 0 0 0 
0 0 0 0 0 0 0 0 0 
0 0 0 0 0 0 0 6.43319e-07 0 
0 0 0 0 8.73274e-07 3.97158e-09 0 0 0 
0 0 0 0 0 0 0 6.55419e-07 1.86838e-09 
0 0 3.50374e-09 7.82724e-09 0 0 0 0 3.83945e-09 
0 0 0 0 0 0 0 6.80858e-10 0 
0 0 0 0 8.60855e-10 0 0 0 0 
0 0 0 0 0 0 0 0 0 
0 0 0 0 0 0 0 0 0 
0 0 0 0 0 0 2.9965e-10 7.2848e-10 0 
0 0 0 0 0 0 0 0 0 
0 0 0 0 0 0 0 0 0 
0 0 0 0 0 0 0 0 4.29677e-09 