# vtk DataFile Version 5.1
vtk output
ASCII
DATASET STRUCTURED_POINTS
DIMENSIONS 50 50 1
SPACING 1 1 1
ORIGIN 0 0 0
POINT_DATA 2500
FIELD FieldData 10
CellType 1 2500 char
0 0 0 0 0 0 0 0 0 
0 0 0 0 0 0 0 0 0 
0 0 0 0 0 9 0 0 0 
0 0 0 0 0 0 0 0 0 
0 0 0 9 0 0 0 0 0 
0 0 0 0 10 0 0 0 0 
0 0 0 0 4 0 0 0 0 
0 0 0 0 0 0 0 9 0 
0 0 0 0 0 0 7 0 0 
0 0 0 0 0 0 0 0 0 
0 0 0 0 0 0 0 0 0 
0 0 0 0 0 0 0 0 0 
0 0 0 0 0 0 0 0 7 
0 0 0 0 0 0 0 0 0 
0 0 0 0 0 0 4 0 0 
0 7 0 0 0 0 0 0 7 
7 0 0 0 0 0 0 0 0 
0 0 0 0 0 0 0 0 0 
0 0 0 0 0 0 0 0 0 
3 2 0 0 0 0 0 0 0 
0 0 0 0 0 0 0 0 0 
0 0 0 0 0 0 0 0 0 
0 4 0 0 0 7 0 0 0 
0 0 0 0 0 0 0 0 0 
0 0 0 0 0 0 0 0 0 
0 0 0 3 0 10 0 0 0 
0 0 0 0 0 0 0 0 0 
0 0 0 0 0 0 0 0 0 
0 7 0 0 0 0 0 0 0 
0 0 0 0 0 0 0 0 7 
0 0 0 0 0 0 0 0 0 
0 0 0 0 0 0 0 0 0 
0 0 0 0 0 0 0 0 0 
0 0 0 0 0 0 0 0 0 
0 0 0 3 0 0 0 0 0 
0 0 0 0 0 0 0 0 0 
0 0 0 0 0 0 0 0 0 
7 7 0 0 0 0 0 10 0 
3 0 0 0 0 0 0 0 0 
0 0 0 0 0 0 0 0 0 
0 0 0 0 0 0 0 0 0 
0 0 0 1 0 0 0 0 0 
0 0 0 0 0 0 0 0 0 
0 0 0 0 0 0 0 5 7 
0 0 0 7 0 0 0 0 0 
0 0 0 1 0 0 0 0 0 
0 0 0 0 0 0 0 0 1 
0 0 0 0 0 0 1 0 0 
0 0 0 1 0 0 0 0 0 
0 0 0 0 0 0 0 0 0 
2 0 0 0 0 0 0 0 0 
0 0 0 1 0 0 0 0 0 
0 0 0 0 0 0 0 0 7 
0 0 0 0 0 0 0 0 0 
0 0 0 1 0 0 0 0 0 
0 0 0 0 0 0 0 0 0 
0 0 0 0 0 0 0 1 0 
0 0 0 0 0 0 0 0 0 
0 0 0 0 0 0 0 0 1 
1 0 0 0 0 0 0 0 0 
0 0 0 0 0 0 0 0 0 
0 0 0 0 0 0 0 4 0 
0 0 0 0 0 0 0 1 0 
0 1 0 0 0 0 0 0 0 
0 0 0 0 0 0 0 0 0 
0 5 0 0 0 0 0 0 0 
0 0 0 0 0 0 7 0 0 
0 0 0 0 0 0 0 0 0 
0 0 0 0 0 0 0 0 0 
0 0 0 0 0 0 0 0 1 
0 0 0 0 0 0 0 0 0 
1 0 1 0 0 0 0 0 0 
0 0 0 0 0 0 0 0 0 
0 0 0 0 1 0 0 0 0 
1 0 0 0 0 0 0 0 0 
0 0 0 0 0 0 0 3 1 
0 0 0 0 0 0 0 0 0 
0 3 0 0 0 0 0 0 0 
0 2 0 0 0 0 0 0 0 
0 0 0 0 1 5 1 0 0 
0 0 1 0 0 0 0 0 0 
0 0 0 3 0 0 0 0 0 
0 0 0 0 0 0 3 0 0 
0 0 0 4 0 0 0 0 0 
0 0 0 0 0 1 0 0 0 
0 0 0 0 1 0 0 3 0 
0 0 0 0 0 0 0 0 0 
0 0 0 0 0 0 0 0 0 
0 0 5 0 0 0 0 0 0 
0 0 0 0 0 0 0 0 0 
1 0 0 0 0 0 0 0 0 
0 0 0 0 0 0 0 0 0 
0 0 5 0 0 0 0 1 1 
0 0 0 0 0 0 0 0 0 
0 0 0 0 0 0 0 0 0 
0 0 0 0 0 0 0 0 0 
0 0 0 0 0 1 0 0 0 
0 0 0 0 0 0 0 0 0 
0 0 0 0 0 0 0 0 0 
0 0 7 0 0 0 0 0 0 
0 0 0 0 0 0 0 0 1 
0 0 0 0 0 0 0 0 0 
0 0 0 0 0 1 0 0 0 
0 0 0 0 0 0 0 1 0 
0 0 0 0 0 0 0 0 0 
0 0 0 0 5 0 0 0 0 
0 0 0 0 0 0 0 5 4 
0 0 0 0 0 0 1 0 0 
0 0 0 1 0 0 0 0 0 
1 0 0 0 0 0 0 0 0 
0 0 0 0 0 0 0 0 0 
0 0 0 0 0 0 2 0 0 
0 0 0 0 0 0 0 0 0 
0 0 1 1 0 0 0 0 0 
0 1 0 0 0 0 3 0 0 
0 0 0 0 0 0 2 0 5 
0 0 0 0 0 0 0 0 0 
0 0 0 0 0 0 0 0 0 
0 0 0 0 1 0 0 0 0 
0 0 0 0 0 0 0 0 0 
0 0 0 0 0 0 0 0 0 
0 0 0 0 0 0 0 0 7 
0 0 0 0 0 0 0 0 0 
0 0 7 0 0 7 0 0 0 
0 0 0 0 0 4 0 0 0 
0 1 0 0 0 0 0 0 0 
0 0 1 0 0 0 0 0 0 
0 0 0 0 0 0 0 0 0 
0 0 0 0 0 0 0 0 0 
0 0 0 0 0 0 0 0 0 
0 0 0 0 0 0 0 1 0 
0 0 0 0 0 0 0 1 0 
0 0 1 0 0 0 0 0 0 
0 0 0 0 0 2 3 0 0 
0 0 0 0 0 0 0 1 0 
0 0 0 1 0 0 0 0 0 
0 1 1 5 0 0 0 0 0 
0 0 0 0 0 0 0 0 0 
0 0 0 0 0 0 0 0 0 
0 0 0 0 0 0 0 0 0 
0 0 0 0 0 0 0 0 0 
0 0 0 0 0 0 0 0 0 
0 0 0 0 0 0 0 1 0 
0 0 1 0 0 8 0 0 0 
0 0 0 0 0 0 0 0 0 
0 0 0 0 0 0 0 0 0 
0 0 0 0 1 0 0 0 0 
1 0 0 0 0 0 0 0 7 
0 0 0 0 0 0 1 1 0 
0 0 0 0 0 0 0 0 0 
0 0 0 0 0 0 0 1 0 
0 0 0 0 1 0 0 0 0 
0 0 0 0 0 0 1 0 0 
1 0 0 0 0 0 0 0 0 
1 0 0 0 0 0 0 0 0 
0 0 0 0 0 0 0 0 0 
0 0 0 0 0 0 0 0 0 
7 0 0 0 9 0 0 0 0 
0 0 0 0 0 0 0 0 0 
0 0 0 0 0 0 0 0 1 
0 0 9 3 0 0 0 0 0 
0 3 0 0 0 0 0 0 0 
0 0 0 0 0 7 0 0 0 
0 0 0 0 0 0 0 0 0 
0 0 1 0 0 0 0 1 0 
0 0 0 1 0 0 0 1 0 
0 0 0 0 0 0 0 0 0 
0 0 0 0 0 0 0 0 0 
0 0 0 0 0 0 0 0 0 
0 0 0 0 0 0 0 0 0 
0 0 0 0 0 0 0 0 0 
0 0 0 0 0 0 0 0 0 
0 0 0 0 0 0 0 0 0 
0 0 0 0 0 0 0 0 1 
0 0 0 0 0 1 0 0 0 
0 0 0 1 0 0 0 0 0 
0 0 0 0 0 0 0 0 0 
0 0 0 0 0 0 0 0 0 
0 0 0 0 0 0 0 0 0 
1 0 0 0 0 0 1 1 0 
0 0 0 1 0 0 0 0 0 
0 0 0 0 0 0 0 0 0 
0 0 0 7 0 0 0 0 0 
0 0 0 0 0 0 0 0 0 
0 0 0 0 0 1 0 0 0 
0 0 0 0 0 0 1 0 0 
0 0 0 0 0 0 1 0 0 
0 0 0 0 0 0 0 0 1 
0 0 0 0 0 0 0 7 5 
0 4 2 0 0 7 0 0 0 
0 0 1 0 7 0 0 0 0 
0 1 0 0 1 0 0 5 0 
0 0 0 0 0 0 0 0 0 
0 0 0 0 0 0 4 0 0 
0 0 0 0 0 0 0 0 0 
0 0 0 0 0 0 0 0 0 
0 0 0 0 1 0 0 0 0 
0 0 0 0 0 1 0 0 0 
0 0 0 0 0 0 0 0 1 
1 0 0 0 0 0 0 0 0 
0 0 0 0 0 0 0 0 0 
0 0 0 0 0 0 0 0 0 
0 1 0 0 0 0 0 0 0 
0 0 0 0 0 0 0 0 0 
0 0 0 0 0 0 0 0 0 
0 0 0 0 0 0 0 0 0 
0 0 0 0 0 0 0 1 0 
0 0 0 0 0 1 0 1 0 
0 1 0 0 0 0 3 0 0 
0 0 1 0 0 0 0 5 0 
0 1 0 0 0 0 0 0 7 
0 0 0 0 0 0 0 0 0 
0 2 0 0 0 0 0 0 0 
0 0 0 0 0 0 0 0 0 
0 0 0 0 0 0 1 0 0 
0 0 0 0 0 0 0 0 0 
0 0 0 0 0 0 0 0 0 
0 0 7 0 0 0 0 0 0 
1 0 0 0 0 0 0 0 0 
0 0 0 0 0 0 0 0 0 
0 0 0 0 0 7 0 0 0 
0 1 0 0 0 0 0 0 0 
0 0 0 0 0 0 7 0 0 
3 0 0 1 0 0 0 0 0 
0 0 0 0 4 0 0 0 0 
0 0 1 2 0 0 0 0 1 
0 0 0 0 0 0 0 0 0 
0 0 0 0 0 0 0 0 0 
0 0 0 0 0 0 0 0 0 
0 0 0 0 0 0 0 0 0 
0 5 0 0 0 0 0 0 0 
0 0 0 0 0 0 0 0 0 
0 0 0 0 1 0 0 0 0 
0 0 0 3 0 0 0 3 0 
0 0 0 0 0 0 0 0 0 
0 5 0 0 0 0 0 0 0 
0 0 0 0 0 0 0 0 0 
0 0 0 0 0 0 0 1 0 
0 0 0 0 0 9 0 0 0 
0 0 0 0 0 0 0 0 0 
0 7 0 0 0 0 0 0 0 
0 0 0 0 0 0 0 0 0 
0 0 0 0 0 0 0 0 9 
0 7 0 0 0 0 0 0 0 
0 0 0 0 0 0 0 0 0 
0 0 0 0 0 0 0 0 0 
0 0 0 0 0 0 0 0 0 
0 0 10 0 0 0 0 0 0 
0 7 0 0 0 0 7 0 0 
0 0 0 0 0 0 0 0 0 
0 0 0 0 0 0 0 0 0 
0 0 0 0 0 0 0 0 0 
0 0 0 0 0 0 0 0 0 
0 0 0 0 0 0 10 0 0 
0 3 0 0 0 0 0 0 0 
0 0 0 3 3 0 0 0 0 
0 0 0 0 0 0 0 0 0 
0 0 0 0 0 0 0 0 0 
0 0 0 0 0 3 0 0 0 
0 0 0 0 0 0 0 0 0 
0 0 0 0 0 0 0 3 3 
0 0 0 0 0 0 3 0 0 
0 0 0 0 0 0 0 0 0 
0 0 0 0 0 0 0 0 0 
0 0 0 0 0 0 0 0 0 
0 0 0 0 0 7 0 0 0 
0 0 7 0 0 0 0 0 0 
0 0 8 8 0 0 0 0 0 
0 0 0 0 0 0 0 0 0 
0 0 0 0 0 0 0 0 0 
0 0 0 0 0 0 0 0 0 
0 0 0 0 0 0 0 0 0 
0 0 0 0 0 0 0 0 0 
0 0 0 0 0 0 0 0 0 
0 0 0 0 0 0 0 0 0 
0 0 0 0 0 0 0 0 0 
0 0 0 0 0 0 0 0 0 
0 0 0 0 0 0 0 
CellId 1 2500 long
0 0 0 0 0 0 0 0 0 
0 0 0 0 0 0 0 0 0 
0 0 0 0 0 281 0 0 0 
0 0 0 0 0 0 0 0 0 
0 0 0 238 0 0 0 0 0 
0 0 0 0 221 0 0 0 0 
0 0 0 0 217 0 0 0 0 
0 0 0 0 0 0 0 270 0 
0 0 0 0 0 0 264 0 0 
0 0 0 0 0 0 0 0 0 
0 0 0 0 0 0 0 0 0 
0 0 0 0 0 0 0 0 0 
0 0 0 0 0 0 0 0 303 
0 0 0 0 0 0 0 0 0 
0 0 0 0 0 0 214 0 0 
0 244 0 0 0 0 0 0 274 
274 0 0 0 0 0 0 0 0 
0 0 0 0 0 0 0 0 0 
0 0 0 0 0 0 0 0 0 
292 199 0 0 0 0 0 0 0 
0 0 0 0 0 0 0 0 0 
0 0 0 0 0 0 0 0 0 
0 325 0 0 0 314 0 0 0 
0 0 0 0 0 0 0 0 0 
0 0 0 0 0 0 0 0 0 
0 0 0 318 0 220 0 0 0 
0 0 0 0 0 0 0 0 0 
0 0 0 0 0 0 0 0 0 
0 314 0 0 0 0 0 0 0 
0 0 0 0 0 0 0 0 267 
0 0 0 0 0 0 0 0 0 
0 0 0 0 0 0 0 0 0 
0 0 0 0 0 0 0 0 0 
0 0 0 0 0 0 0 0 0 
0 0 0 309 0 0 0 0 0 
0 0 0 0 0 0 0 0 0 
0 0 0 0 0 0 0 0 0 
327 327 0 0 0 0 0 222 0 
332 0 0 0 0 0 0 0 0 
0 0 0 0 0 0 0 0 0 
0 0 0 0 0 0 0 0 0 
0 0 0 77 0 0 0 0 0 
0 0 0 0 0 0 0 0 0 
0 0 0 0 0 0 0 140 271 
0 0 0 268 0 0 0 0 0 
0 0 0 63 0 0 0 0 0 
0 0 0 0 0 0 0 0 78 
0 0 0 0 0 0 43 0 0 
0 0 0 11 0 0 0 0 0 
0 0 0 0 0 0 0 0 0 
138 0 0 0 0 0 0 0 0 
0 0 0 62 0 0 0 0 0 
0 0 0 0 0 0 0 0 279 
0 0 0 0 0 0 0 0 0 
0 0 0 71 0 0 0 0 0 
0 0 0 0 0 0 0 0 0 
0 0 0 0 0 0 0 38 0 
0 0 0 0 0 0 0 0 0 
0 0 0 0 0 0 0 0 67 
100 0 0 0 0 0 0 0 0 
0 0 0 0 0 0 0 0 0 
0 0 0 0 0 0 0 213 0 
0 0 0 0 0 0 0 96 0 
0 25 0 0 0 0 0 0 0 
0 0 0 0 0 0 0 0 0 
0 200 0 0 0 0 0 0 0 
0 0 0 0 0 0 251 0 0 
0 0 0 0 0 0 0 0 0 
0 0 0 0 0 0 0 0 0 
0 0 0 0 0 0 0 0 68 
0 0 0 0 0 0 0 0 0 
31 0 7 0 0 0 0 0 0 
0 0 0 0 0 0 0 0 0 
0 0 0 0 69 0 0 0 0 
22 0 0 0 0 0 0 0 0 
0 0 0 0 0 0 0 302 33 
0 0 0 0 0 0 0 0 0 
0 296 0 0 0 0 0 0 0 
0 171 0 0 0 0 0 0 0 
0 0 0 0 8 118 61 0 0 
0 0 60 0 0 0 0 0 0 
0 0 0 302 0 0 0 0 0 
0 0 0 0 0 0 296 0 0 
0 0 0 212 0 0 0 0 0 
0 0 0 0 0 23 0 0 0 
0 0 0 0 85 0 0 310 0 
0 0 0 0 0 0 0 0 0 
0 0 0 0 0 0 0 0 0 
0 0 202 0 0 0 0 0 0 
0 0 0 0 0 0 0 0 0 
5 0 0 0 0 0 0 0 0 
0 0 0 0 0 0 0 0 0 
0 0 169 0 0 0 0 86 53 
0 0 0 0 0 0 0 0 0 
0 0 0 0 0 0 0 0 0 
0 0 0 0 0 0 0 0 0 
0 0 0 0 0 72 0 0 0 
0 0 0 0 0 0 0 0 0 
0 0 0 0 0 0 0 0 0 
0 0 307 0 0 0 0 0 0 
0 0 0 0 0 0 0 0 59 
0 0 0 0 0 0 0 0 0 
0 0 0 0 0 97 0 0 0 
0 0 0 0 0 0 0 51 0 
0 0 0 0 0 0 0 0 0 
0 0 0 0 208 0 0 0 0 
0 0 0 0 0 0 0 147 216 
0 0 0 0 0 0 54 0 0 
0 0 0 70 0 0 0 0 0 
3 0 0 0 0 0 0 0 0 
0 0 0 0 0 0 0 0 0 
0 0 0 0 0 0 143 0 0 
0 0 0 0 0 0 0 0 0 
0 0 42 57 0 0 0 0 0 
0 76 0 0 0 0 282 0 0 
0 0 0 0 0 0 121 0 187 
0 0 0 0 0 0 0 0 0 
0 0 0 0 0 0 0 0 0 
0 0 0 0 66 0 0 0 0 
0 0 0 0 0 0 0 0 0 
0 0 0 0 0 0 0 0 0 
0 0 0 0 0 0 0 0 231 
0 0 0 0 0 0 0 0 0 
0 0 263 0 0 288 0 0 0 
0 0 0 0 0 218 0 0 0 
0 84 0 0 0 0 0 0 0 
0 0 40 0 0 0 0 0 0 
0 0 0 0 0 0 0 0 0 
0 0 0 0 0 0 0 0 0 
0 0 0 0 0 0 0 0 0 
0 0 0 0 0 0 0 34 0 
0 0 0 0 0 0 0 88 0 
0 0 82 0 0 0 0 0 0 
0 0 0 0 0 197 320 0 0 
0 0 0 0 0 0 0 44 0 
0 0 0 29 0 0 0 0 0 
0 2 91 166 0 0 0 0 0 
0 0 0 0 0 0 0 0 0 
0 0 0 0 0 0 0 0 0 
0 0 0 0 0 0 0 0 0 
0 0 0 0 0 0 0 0 0 
0 0 0 0 0 0 0 0 0 
0 0 0 0 0 0 0 27 0 
0 0 41 0 0 280 0 0 0 
0 0 0 0 0 0 0 0 0 
0 0 0 0 0 0 0 0 0 
0 0 0 0 98 0 0 0 0 
10 0 0 0 0 0 0 0 336 
0 0 0 0 0 0 4 58 0 
0 0 0 0 0 0 0 0 0 
0 0 0 0 0 0 0 73 0 
0 0 0 0 75 0 0 0 0 
0 0 0 0 0 0 13 0 0 
55 0 0 0 0 0 0 0 0 
32 0 0 0 0 0 0 0 0 
0 0 0 0 0 0 0 0 0 
0 0 0 0 0 0 0 0 0 
295 0 0 0 235 0 0 0 0 
0 0 0 0 0 0 0 0 0 
0 0 0 0 0 0 0 0 49 
0 0 294 230 0 0 0 0 0 
0 306 0 0 0 0 0 0 0 
0 0 0 0 0 295 0 0 0 
0 0 0 0 0 0 0 0 0 
0 0 47 0 0 0 0 89 0 
0 0 0 37 0 0 0 30 0 
0 0 0 0 0 0 0 0 0 
0 0 0 0 0 0 0 0 0 
0 0 0 0 0 0 0 0 0 
0 0 0 0 0 0 0 0 0 
0 0 0 0 0 0 0 0 0 
0 0 0 0 0 0 0 0 0 
0 0 0 0 0 0 0 0 0 
0 0 0 0 0 0 0 0 95 
0 0 0 0 0 90 0 0 0 
0 0 0 48 0 0 0 0 0 
0 0 0 0 0 0 0 0 0 
0 0 0 0 0 0 0 0 0 
0 0 0 0 0 0 0 0 0 
83 0 0 0 0 0 52 87 0 
0 0 0 14 0 0 0 0 0 
0 0 0 0 0 0 0 0 0 
0 0 0 269 0 0 0 0 0 
0 0 0 0 0 0 0 0 0 
0 0 0 0 0 9 0 0 0 
0 0 0 0 0 0 21 0 0 
0 0 0 0 0 0 99 0 0 
0 0 0 0 0 0 0 0 64 
0 0 0 0 0 0 0 286 209 
0 211 205 0 0 330 0 0 0 
0 0 26 0 245 0 0 0 0 
0 80 0 0 45 0 0 154 0 
0 0 0 0 0 0 0 0 0 
0 0 0 0 0 0 219 0 0 
0 0 0 0 0 0 0 0 0 
0 0 0 0 0 0 0 0 0 
0 0 0 0 1 0 0 0 0 
0 0 0 0 0 94 0 0 0 
0 0 0 0 0 0 0 0 93 
35 0 0 0 0 0 0 0 0 
0 0 0 0 0 0 0 0 0 
0 0 0 0 0 0 0 0 0 
0 15 0 0 0 0 0 0 0 
0 0 0 0 0 0 0 0 0 
0 0 0 0 0 0 0 0 0 
0 0 0 0 0 0 0 0 0 
0 0 0 0 0 0 0 39 0 
0 0 0 0 0 19 0 46 0 
0 36 0 0 0 0 293 0 0 
0 0 50 0 0 0 0 196 0 
0 17 0 0 0 0 0 0 321 
0 0 0 0 0 0 0 0 0 
0 125 0 0 0 0 0 0 0 
0 0 0 0 0 0 0 0 0 
0 0 0 0 0 0 18 0 0 
0 0 0 0 0 0 0 0 0 
0 0 0 0 0 0 0 0 0 
0 0 243 0 0 0 0 0 0 
20 0 0 0 0 0 0 0 0 
0 0 0 0 0 0 0 0 0 
0 0 0 0 0 311 0 0 0 
0 24 0 0 0 0 0 0 0 
0 0 0 0 0 0 331 0 0 
298 0 0 74 0 0 0 0 0 
0 0 0 0 215 0 0 0 0 
0 0 6 186 0 0 0 0 56 
0 0 0 0 0 0 0 0 0 
0 0 0 0 0 0 0 0 0 
0 0 0 0 0 0 0 0 0 
0 0 0 0 0 0 0 0 0 
0 175 0 0 0 0 0 0 0 
0 0 0 0 0 0 0 0 0 
0 0 0 0 16 0 0 0 0 
0 0 0 275 0 0 0 233 0 
0 0 0 0 0 0 0 0 0 
0 179 0 0 0 0 0 0 0 
0 0 0 0 0 0 0 0 0 
0 0 0 0 0 0 0 81 0 
0 0 0 0 0 257 0 0 0 
0 0 0 0 0 0 0 0 0 
0 323 0 0 0 0 0 0 0 
0 0 0 0 0 0 0 0 0 
0 0 0 0 0 0 0 0 246 
0 299 0 0 0 0 0 0 0 
0 0 0 0 0 0 0 0 0 
0 0 0 0 0 0 0 0 0 
0 0 0 0 0 0 0 0 0 
0 0 223 0 0 0 0 0 0 
0 266 0 0 0 0 299 0 0 
0 0 0 0 0 0 0 0 0 
0 0 0 0 0 0 0 0 0 
0 0 0 0 0 0 0 0 0 
0 0 0 0 0 0 0 0 0 
0 0 0 0 0 0 326 0 0 
0 283 0 0 0 0 0 0 0 
0 0 0 301 301 0 0 0 0 
0 0 0 0 0 0 0 0 0 
0 0 0 0 0 0 0 0 0 
0 0 0 0 0 261 0 0 0 
0 0 0 0 0 0 0 0 0 
0 0 0 0 0 0 0 301 301 
0 0 0 0 0 0 316 0 0 
0 0 0 0 0 0 0 0 0 
0 0 0 0 0 0 0 0 0 
0 0 0 0 0 0 0 0 0 
0 0 0 0 0 315 0 0 0 
0 0 247 0 0 0 0 0 0 
0 0 290 290 0 0 0 0 0 
0 0 0 0 0 0 0 0 0 
0 0 0 0 0 0 0 0 0 
0 0 0 0 0 0 0 0 0 
0 0 0 0 0 0 0 0 0 
0 0 0 0 0 0 0 0 0 
0 0 0 0 0 0 0 0 0 
0 0 0 0 0 0 0 0 0 
0 0 0 0 0 0 0 0 0 
0 0 0 0 0 0 0 0 0 
0 0 0 0 0 0 0 
ClusterId 1 2500 long
0 0 0 0 0 0 0 0 0 
0 0 0 0 0 0 0 0 0 
0 0 0 0 0 281 0 0 0 
0 0 0 0 0 0 0 0 0 
0 0 0 238 0 0 0 0 0 
0 0 0 0 221 0 0 0 0 
0 0 0 0 217 0 0 0 0 
0 0 0 0 0 0 0 270 0 
0 0 0 0 0 0 264 0 0 
0 0 0 0 0 0 0 0 0 
0 0 0 0 0 0 0 0 0 
0 0 0 0 0 0 0 0 0 
0 0 0 0 0 0 0 0 303 
0 0 0 0 0 0 0 0 0 
0 0 0 0 0 0 214 0 0 
0 244 0 0 0 0 0 0 274 
274 0 0 0 0 0 0 0 0 
0 0 0 0 0 0 0 0 0 
0 0 0 0 0 0 0 0 0 
292 199 0 0 0 0 0 0 0 
0 0 0 0 0 0 0 0 0 
0 0 0 0 0 0 0 0 0 
0 325 0 0 0 314 0 0 0 
0 0 0 0 0 0 0 0 0 
0 0 0 0 0 0 0 0 0 
0 0 0 318 0 220 0 0 0 
0 0 0 0 0 0 0 0 0 
0 0 0 0 0 0 0 0 0 
0 314 0 0 0 0 0 0 0 
0 0 0 0 0 0 0 0 267 
0 0 0 0 0 0 0 0 0 
0 0 0 0 0 0 0 0 0 
0 0 0 0 0 0 0 0 0 
0 0 0 0 0 0 0 0 0 
0 0 0 309 0 0 0 0 0 
0 0 0 0 0 0 0 0 0 
0 0 0 0 0 0 0 0 0 
327 327 0 0 0 0 0 222 0 
332 0 0 0 0 0 0 0 0 
0 0 0 0 0 0 0 0 0 
0 0 0 0 0 0 0 0 0 
0 0 0 77 0 0 0 0 0 
0 0 0 0 0 0 0 0 0 
0 0 0 0 0 0 0 140 271 
0 0 0 268 0 0 0 0 0 
0 0 0 63 0 0 0 0 0 
0 0 0 0 0 0 0 0 78 
0 0 0 0 0 0 43 0 0 
0 0 0 11 0 0 0 0 0 
0 0 0 0 0 0 0 0 0 
138 0 0 0 0 0 0 0 0 
0 0 0 62 0 0 0 0 0 
0 0 0 0 0 0 0 0 279 
0 0 0 0 0 0 0 0 0 
0 0 0 71 0 0 0 0 0 
0 0 0 0 0 0 0 0 0 
0 0 0 0 0 0 0 38 0 
0 0 0 0 0 0 0 0 0 
0 0 0 0 0 0 0 0 67 
100 0 0 0 0 0 0 0 0 
0 0 0 0 0 0 0 0 0 
0 0 0 0 0 0 0 213 0 
0 0 0 0 0 0 0 96 0 
0 25 0 0 0 0 0 0 0 
0 0 0 0 0 0 0 0 0 
0 200 0 0 0 0 0 0 0 
0 0 0 0 0 0 251 0 0 
0 0 0 0 0 0 0 0 0 
0 0 0 0 0 0 0 0 0 
0 0 0 0 0 0 0 0 68 
0 0 0 0 0 0 0 0 0 
31 0 7 0 0 0 0 0 0 
0 0 0 0 0 0 0 0 0 
0 0 0 0 69 0 0 0 0 
22 0 0 0 0 0 0 0 0 
0 0 0 0 0 0 0 302 33 
0 0 0 0 0 0 0 0 0 
0 296 0 0 0 0 0 0 0 
0 171 0 0 0 0 0 0 0 
0 0 0 0 8 118 61 0 0 
0 0 60 0 0 0 0 0 0 
0 0 0 302 0 0 0 0 0 
0 0 0 0 0 0 296 0 0 
0 0 0 212 0 0 0 0 0 
0 0 0 0 0 23 0 0 0 
0 0 0 0 85 0 0 310 0 
0 0 0 0 0 0 0 0 0 
0 0 0 0 0 0 0 0 0 
0 0 202 0 0 0 0 0 0 
0 0 0 0 0 0 0 0 0 
5 0 0 0 0 0 0 0 0 
0 0 0 0 0 0 0 0 0 
0 0 169 0 0 0 0 86 53 
0 0 0 0 0 0 0 0 0 
0 0 0 0 0 0 0 0 0 
0 0 0 0 0 0 0 0 0 
0 0 0 0 0 72 0 0 0 
0 0 0 0 0 0 0 0 0 
0 0 0 0 0 0 0 0 0 
0 0 307 0 0 0 0 0 0 
0 0 0 0 0 0 0 0 59 
0 0 0 0 0 0 0 0 0 
0 0 0 0 0 97 0 0 0 
0 0 0 0 0 0 0 51 0 
0 0 0 0 0 0 0 0 0 
0 0 0 0 208 0 0 0 0 
0 0 0 0 0 0 0 147 216 
0 0 0 0 0 0 54 0 0 
0 0 0 70 0 0 0 0 0 
3 0 0 0 0 0 0 0 0 
0 0 0 0 0 0 0 0 0 
0 0 0 0 0 0 143 0 0 
0 0 0 0 0 0 0 0 0 
0 0 42 57 0 0 0 0 0 
0 76 0 0 0 0 282 0 0 
0 0 0 0 0 0 121 0 187 
0 0 0 0 0 0 0 0 0 
0 0 0 0 0 0 0 0 0 
0 0 0 0 66 0 0 0 0 
0 0 0 0 0 0 0 0 0 
0 0 0 0 0 0 0 0 0 
0 0 0 0 0 0 0 0 231 
0 0 0 0 0 0 0 0 0 
0 0 263 0 0 288 0 0 0 
0 0 0 0 0 218 0 0 0 
0 84 0 0 0 0 0 0 0 
0 0 40 0 0 0 0 0 0 
0 0 0 0 0 0 0 0 0 
0 0 0 0 0 0 0 0 0 
0 0 0 0 0 0 0 0 0 
0 0 0 0 0 0 0 34 0 
0 0 0 0 0 0 0 88 0 
0 0 82 0 0 0 0 0 0 
0 0 0 0 0 197 320 0 0 
0 0 0 0 0 0 0 44 0 
0 0 0 29 0 0 0 0 0 
0 2 91 166 0 0 0 0 0 
0 0 0 0 0 0 0 0 0 
0 0 0 0 0 0 0 0 0 
0 0 0 0 0 0 0 0 0 
0 0 0 0 0 0 0 0 0 
0 0 0 0 0 0 0 0 0 
0 0 0 0 0 0 0 27 0 
0 0 41 0 0 280 0 0 0 
0 0 0 0 0 0 0 0 0 
0 0 0 0 0 0 0 0 0 
0 0 0 0 98 0 0 0 0 
10 0 0 0 0 0 0 0 336 
0 0 0 0 0 0 4 58 0 
0 0 0 0 0 0 0 0 0 
0 0 0 0 0 0 0 73 0 
0 0 0 0 75 0 0 0 0 
0 0 0 0 0 0 13 0 0 
55 0 0 0 0 0 0 0 0 
32 0 0 0 0 0 0 0 0 
0 0 0 0 0 0 0 0 0 
0 0 0 0 0 0 0 0 0 
295 0 0 0 235 0 0 0 0 
0 0 0 0 0 0 0 0 0 
0 0 0 0 0 0 0 0 49 
0 0 294 230 0 0 0 0 0 
0 306 0 0 0 0 0 0 0 
0 0 0 0 0 295 0 0 0 
0 0 0 0 0 0 0 0 0 
0 0 47 0 0 0 0 89 0 
0 0 0 37 0 0 0 30 0 
0 0 0 0 0 0 0 0 0 
0 0 0 0 0 0 0 0 0 
0 0 0 0 0 0 0 0 0 
0 0 0 0 0 0 0 0 0 
0 0 0 0 0 0 0 0 0 
0 0 0 0 0 0 0 0 0 
0 0 0 0 0 0 0 0 0 
0 0 0 0 0 0 0 0 95 
0 0 0 0 0 90 0 0 0 
0 0 0 48 0 0 0 0 0 
0 0 0 0 0 0 0 0 0 
0 0 0 0 0 0 0 0 0 
0 0 0 0 0 0 0 0 0 
83 0 0 0 0 0 52 87 0 
0 0 0 14 0 0 0 0 0 
0 0 0 0 0 0 0 0 0 
0 0 0 269 0 0 0 0 0 
0 0 0 0 0 0 0 0 0 
0 0 0 0 0 9 0 0 0 
0 0 0 0 0 0 21 0 0 
0 0 0 0 0 0 99 0 0 
0 0 0 0 0 0 0 0 64 
0 0 0 0 0 0 0 286 209 
0 211 205 0 0 330 0 0 0 
0 0 26 0 245 0 0 0 0 
0 80 0 0 45 0 0 154 0 
0 0 0 0 0 0 0 0 0 
0 0 0 0 0 0 219 0 0 
0 0 0 0 0 0 0 0 0 
0 0 0 0 0 0 0 0 0 
0 0 0 0 1 0 0 0 0 
0 0 0 0 0 94 0 0 0 
0 0 0 0 0 0 0 0 93 
35 0 0 0 0 0 0 0 0 
0 0 0 0 0 0 0 0 0 
0 0 0 0 0 0 0 0 0 
0 15 0 0 0 0 0 0 0 
0 0 0 0 0 0 0 0 0 
0 0 0 0 0 0 0 0 0 
0 0 0 0 0 0 0 0 0 
0 0 0 0 0 0 0 39 0 
0 0 0 0 0 19 0 46 0 
0 36 0 0 0 0 293 0 0 
0 0 50 0 0 0 0 196 0 
0 17 0 0 0 0 0 0 321 
0 0 0 0 0 0 0 0 0 
0 125 0 0 0 0 0 0 0 
0 0 0 0 0 0 0 0 0 
0 0 0 0 0 0 18 0 0 
0 0 0 0 0 0 0 0 0 
0 0 0 0 0 0 0 0 0 
0 0 243 0 0 0 0 0 0 
20 0 0 0 0 0 0 0 0 
0 0 0 0 0 0 0 0 0 
0 0 0 0 0 311 0 0 0 
0 24 0 0 0 0 0 0 0 
0 0 0 0 0 0 331 0 0 
298 0 0 74 0 0 0 0 0 
0 0 0 0 215 0 0 0 0 
0 0 6 186 0 0 0 0 56 
0 0 0 0 0 0 0 0 0 
0 0 0 0 0 0 0 0 0 
0 0 0 0 0 0 0 0 0 
0 0 0 0 0 0 0 0 0 
0 175 0 0 0 0 0 0 0 
0 0 0 0 0 0 0 0 0 
0 0 0 0 16 0 0 0 0 
0 0 0 275 0 0 0 233 0 
0 0 0 0 0 0 0 0 0 
0 179 0 0 0 0 0 0 0 
0 0 0 0 0 0 0 0 0 
0 0 0 0 0 0 0 81 0 
0 0 0 0 0 257 0 0 0 
0 0 0 0 0 0 0 0 0 
0 323 0 0 0 0 0 0 0 
0 0 0 0 0 0 0 0 0 
0 0 0 0 0 0 0 0 246 
0 299 0 0 0 0 0 0 0 
0 0 0 0 0 0 0 0 0 
0 0 0 0 0 0 0 0 0 
0 0 0 0 0 0 0 0 0 
0 0 223 0 0 0 0 0 0 
0 266 0 0 0 0 299 0 0 
0 0 0 0 0 0 0 0 0 
0 0 0 0 0 0 0 0 0 
0 0 0 0 0 0 0 0 0 
0 0 0 0 0 0 0 0 0 
0 0 0 0 0 0 326 0 0 
0 283 0 0 0 0 0 0 0 
0 0 0 301 301 0 0 0 0 
0 0 0 0 0 0 0 0 0 
0 0 0 0 0 0 0 0 0 
0 0 0 0 0 261 0 0 0 
0 0 0 0 0 0 0 0 0 
0 0 0 0 0 0 0 301 301 
0 0 0 0 0 0 316 0 0 
0 0 0 0 0 0 0 0 0 
0 0 0 0 0 0 0 0 0 
0 0 0 0 0 0 0 0 0 
0 0 0 0 0 315 0 0 0 
0 0 247 0 0 0 0 0 0 
0 0 290 290 0 0 0 0 0 
0 0 0 0 0 0 0 0 0 
0 0 0 0 0 0 0 0 0 
0 0 0 0 0 0 0 0 0 
0 0 0 0 0 0 0 0 0 
0 0 0 0 0 0 0 0 0 
0 0 0 0 0 0 0 0 0 
0 0 0 0 0 0 0 0 0 
0 0 0 0 0 0 0 0 0 
0 0 0 0 0 0 0 0 0 
0 0 0 0 0 0 0 
cytokine 1 2500 double
0 0 0 0 0 0 0 0 0 
0 0 0 0 0 0 0 0 0 
0 0 0 0 0 0 0 0 0 
0 0 0 0 0 0 0 0 0 
0 0 0 0 0 0 0 0 0 
0 0 0 0 0 0 0 0 0 
0 0 0 0 0 0 0 0 0 
0 0 0 0 0 0 0 0 0 
0 0 0 0 0 0 0 0 0 
0 0 0 0 0 0 0 0 0 
0 0 0 0 0 0 0 0 0 
0 0 0 0 0 0 0 0 0 
0 0 0 0 0 0 0 0 0 
0 0 0 0 0 0 0 0 0 
0 0 0 0 0 0 0 0 0 
0 0 0 0 0 0 0 0 0 
0 0 0 0 0 0 0 0 0 
0 0 0 0 0 0 0 0 0 
0 0 0 0 0 0 0 0 0 
0 0 0 0 0 0 0 0 0 
0 0 0 0 0 0 0 0 0 
0 0 0 0 0 0 0 0 0 
0 0 0 0 0 0 0 0 0 
0 0 0 0 0 0 0 0 0 
0 0 0 0 0 0 0 0 0 
0 0 0 0 0 0 0 0 0 
0 0 0 0 0 0 0 0 0 
0 0 0 0 0 0 0 0 0 
0 0 0 0 0 0 0 0 0 
0 0 0 0 0 0 0 0 0 
0 0 0 0 0 0 0 0 0 
0 0 0 0 0 0 0 0 0 
0 0 0 0 0 0 0 0 0 
0 0 0 0 0 0 0 0 0 
0 0 0 0 0 0 0 0 0 
0 0 0 0 0 0 0 0 0 
0 0 0 0 0 0 0 0 0 
0 0 0 0 0 0 0 0 0 
0 0 0 0 0 0 0 0 0 
0 0 0 0 0 0 0 0 0 
0 0 0 0 0 0 0 0 0 
0 0 0 0 0 0 0 0 0 
0 0 0 0 0 0 0 0 0 
0 0 0 0 0 0 0 0 0 
0 0 0 0 0 0 0 0 0 
0 0 0 0 0 0 0 0 0 
0 0 0 0 0 0 0 0 0 
0 0 0 0 0 0 0 0 0 
0 0 0 0 0 0 0 0 0 
0 0 0 0 0 0 0 0 0 
0 0 0 0 0 0 0 0 0 
0 0 0 0 0 0 0 0 0 
0 0 0 0 0 0 0 0 0 
0 0 0 0 0 0 0 0 0 
0 0 0 0 0 0 0 0 0 
0 0 0 0 0 0 0 0 0 
0 0 0 0 0 0 0 0 0 
0 0 0 0 0 0 0 0 0 
0 0 0 0 0 0 0 0 0 
0 0 0 0 0 0 0 0 0 
0 0 0 0 0 0 0 0 0 
0 0 0 0 0 0 0 0 0 
0 0 0 0 0 0 0 0 0 
0 0 0 0 0 0 0 0 0 
0 0 0 0 0 0 0 0 0 
0 0 0 0 0 0 0 0 0 
0 0 0 0 0 0 0 0 0 
0 0 0 0 0 0 0 0 0 
0 0 0 0 0 0 0 0 0 
0 0 0 0 0 0 0 0 0 
0 0 0 0 0 0 0 0 0 
0 0 0 0 0 0 0 0 0 
0 0 0 0 0 0 0 0 0 
0 0 0 0 0 0 0 0 0 
0 0 0 0 0 0 0 0 0 
0 0 0 0 0 0 0 0 0 
0 0 0 0 0 0 0 0 0 
0 0 0 0 0 0 0 0 0 
0 0 0 0 0 0 0 0 0 
0 0 0 0 0 0 0 0 0 
0 0 0 0 0 0 0 0 0 
0 0 0 0 0 0 0 0 0 
0 0 0 0 0 0 0 0 0 
0 0 0 0 0 0 0 0 0 
0 0 0 0 0 0 0 0 0 
0 0 0 0 0 0 0 0 0 
0 0 0 0 0 0 0 0 0 
0 0 0 0 0 0 0 0 0 
0 0 0 0 0 0 0 0 0 
0 0 0 0 0 0 0 0 0 
0 0 0 0 0 0 0 0 0 
0 0 0 0 0 0 0 0 0 
0 0 0 0 0 0 0 0 0 
0 0 0 0 0 0 0 0 0 
0 0 0 0 0 0 0 0 0 
0 0 0 0 0 0 0 0 0 
0 0 0 0 0 0 0 0 0 
0 0 0 0 0 0 0 0 0 
0 0 0 0 0 0 0 0 0 
0 0 0 0 0 0 0 0 0 
0 0 0 0 0 0 0 0 0 
0 0 0 0 0 0 0 0 0 
0 0 0 0 0 0 0 0 0 
0 0 0 0 0 0 0 0 0 
0 0 0 0 0 0 0 0 0 
0 0 0 0 0 0 0 0 0 
0 0 0 0 0 0 0 0 0 
0 0 0 0 0 0 0 0 0 
0 0 0 0 0 0 0 0 0 
0 0 0 0 0 0 0 0 0 
0 0 0 0 0 0 0 0 0 
0 0 0 0 0 0 0 0 0 
0 0 0 0 0 0 0 0 0 
0 0 0 0 0 0 0 0 0 
0 0 0 0 0 0 0 0 0 
0 0 0 0 0 0 0 0 0 
0 0 0 0 0 0 0 0 0 
0 0 0 0 0 0 0 0 0 
0 0 0 0 0 0 0 0 0 
0 0 0 0 0 0 0 0 0 
0 0 0 0 0 0 0 0 0 
0 0 0 0 0 0 0 0 0 
0 0 0 0 0 0 0 0 0 
0 0 0 0 0 0 0 0 0 
0 0 0 0 0 0 0 0 0 
0 0 0 0 0 0 0 0 0 
0 0 0 0 0 0 0 0 0 
0 0 0 0 0 0 0 0 0 
0 0 0 0 0 0 0 0 0 
0 0 0 0 0 0 0 0 0 
0 0 0 0 0 0 0 0 0 
0 0 0 0 0 0 0 0 0 
0 0 0 0 0 0 0 0 0 
0 0 0 0 0 0 0 0 0 
0 0 0 0 0 0 0 0 0 
0 0 0 0 0 0 0 0 0 
0 0 0 0 0 0 0 0 0 
0 0 0 0 0 0 0 0 0 
0 0 0 0 0 0 0 0 0 
0 0 0 0 0 0 0 0 0 
0 0 0 0 0 0 0 0 0 
0 0 0 0 0 0 0 0 0 
0 0 0 0 0 0 0 0 0 
0 0 0 0 0 0 0 0 0 
0 0 0 0 0 0 0 0 0 
0 0 0 0 0 0 0 0 0 
0 0 0 0 0 0 0 0 0 
0 0 0 0 0 0 0 0 0 
0 0 0 0 0 0 0 0 0 
0 0 0 0 0 0 0 0 0 
0 0 0 0 0 0 0 0 0 
0 0 0 0 0 0 0 0 0 
0 0 0 0 0 0 0 0 0 
0 0 0 0 0 0 0 0 0 
0 0 0 0 0 0 0 0 0 
0 0 0 0 0 0 0 0 0 
0 0 0 0 0 0 0 0 0 
0 0 0 0 0 0 0 0 0 
0 0 0 0 0 0 0 0 0 
0 0 0 0 0 0 0 0 0 
0 0 0 0 0 0 0 0 0 
0 0 0 0 0 0 0 0 0 
0 0 0 0 0 0 0 0 0 
0 0 0 0 0 0 0 0 0 
0 0 0 0 0 0 0 0 0 
0 0 0 0 0 0 0 0 0 
0 0 0 0 0 0 0 0 0 
0 0 0 0 0 0 0 0 0 
0 0 0 0 0 0 0 0 0 
0 0 0 0 0 0 0 0 0 
0 0 0 0 0 0 0 0 0 
0 0 0 0 0 0 0 0 0 
0 0 0 0 0 0 0 0 0 
0 0 0 0 0 0 0 0 0 
0 0 0 0 0 0 0 0 0 
0 0 0 0 0 0 0 0 0 
0 0 0 0 0 0 0 0 0 
0 0 0 0 0 0 0 0 0 
0 0 0 0 0 0 0 0 0 
0 0 0 0 0 0 0 0 0 
0 0 0 0 0 0 0 0 0 
0 0 0 0 0 0 0 0 0 
0 0 0 0 0 0 0 0 0 
0 0 0 0 0 0 0 0 0 
0 0 0 0 0 0 0 0 0 
0 0 0 0 0 0 0 0 0 
0 0 0 0 0 0 0 0 0 
0 0 0 0 0 0 0 0 0 
0 0 0 0 0 0 0 0 0 
0 0 0 0 0 0 0 0 0 
0 0 0 0 0 0 0 0 0 
0 0 0 0 0 0 0 0 0 
0 0 0 0 0 0 0 0 0 
0 0 0 0 0 0 0 0 0 
0 0 0 0 0 0 0 0 0 
0 0 0 0 0 0 0 0 0 
0 0 0 0 0 0 0 0 0 
0 0 0 0 0 0 0 0 0 
0 0 0 0 0 0 0 0 0 
0 0 0 0 0 0 0 0 0 
0 0 0 0 0 0 0 0 0 
0 0 0 0 0 0 0 0 0 
0 0 0 0 0 0 0 0 0 
0 0 0 0 0 0 0 0 0 
0 0 0 0 0 0 0 0 0 
0 0 0 0 0 0 0 0 0 
0 0 0 0 0 0 0 0 0 
0 0 0 0 0 0 0 0 0 
0 0 0 0 0 0 0 0 0 
0 0 0 0 0 0 0 0 0 
0 0 0 0 0 0 0 0 0 
0 0 0 0 0 0 0 0 0 
0 0 0 0 0 0 0 0 0 
0 0 0 0 0 0 0 0 0 
0 0 0 0 0 0 0 0 0 
0 0 0 0 0 0 0 0 0 
0 0 0 0 0 0 0 0 0 
0 0 0 0 0 0 0 0 0 
0 0 0 0 0 0 0 0 0 
0 0 0 0 0 0 0 0 0 
0 0 0 0 0 0 0 0 0 
0 0 0 0 0 0 0 0 0 
0 0 0 0 0 0 0 0 0 
0 0 0 0 0 0 0 0 0 
0 0 0 0 0 0 0 0 0 
0 0 0 0 0 0 0 0 0 
0 0 0 0 0 0 0 0 0 
0 0 0 0 0 0 0 0 0 
0 0 0 0 0 0 0 0 0 
0 0 0 0 0 0 0 0 0 
0 0 0 0 0 0 0 0 0 
0 0 0 0 0 0 0 0 0 
0 0 0 0 0 0 0 0 0 
0 0 0 0 0 0 0 0 0 
0 0 0 0 0 0 0 0 0 
0 0 0 0 0 0 0 0 0 
0 0 0 0 0 0 0 0 0 
0 0 0 0 0 0 0 0 0 
0 0 0 0 0 0 0 0 0 
0 0 0 0 0 0 0 0 0 
0 0 0 0 0 0 0 0 0 
0 0 0 0 0 0 0 0 0 
0 0 0 0 0 0 0 0 0 
0 0 0 0 0 0 0 0 0 
0 0 0 0 0 0 0 0 0 
0 0 0 0 0 0 0 0 0 
0 0 0 0 0 0 0 0 0 
0 0 0 0 0 0 0 0 0 
0 0 0 0 0 0 0 0 0 
0 0 0 0 0 0 0 0 0 
0 0 0 0 0 0 0 0 0 
0 0 0 0 0 0 0 0 0 
0 0 0 0 0 0 0 0 0 
0 0 0 0 0 0 0 0 0 
0 0 0 0 0 0 0 0 0 
0 0 0 0 0 0 0 0 0 
0 0 0 0 0 0 0 0 0 
0 0 0 0 0 0 0 0 0 
0 0 0 0 0 0 0 0 0 
0 0 0 0 0 0 0 0 0 
0 0 0 0 0 0 0 0 0 
0 0 0 0 0 0 0 0 0 
0 0 0 0 0 0 0 0 0 
0 0 0 0 0 0 0 0 0 
0 0 0 0 0 0 0 0 0 
0 0 0 0 0 0 0 0 0 
0 0 0 0 0 0 0 0 0 
0 0 0 0 0 0 0 0 0 
0 0 0 0 0 0 0 0 0 
0 0 0 0 0 0 0 0 0 
0 0 0 0 0 0 0 0 0 
0 0 0 0 0 0 0 0 0 
0 0 0 0 0 0 0 0 0 
0 0 0 0 0 0 0 0 0 
0 0 0 0 0 0 0 0 0 
0 0 0 0 0 0 0 0 0 
0 0 0 0 0 0 0 0 0 
0 0 0 0 0 0 0 
il1 1 2500 double
7.5668435358e-25 2.1564541519e-22 5.639210122e-20 1.331518505e-17 2.7473064717e-15 4.6897511916e-13 5.8841882755e-11 4.1530987538e-09 5.8841882755e-11 
4.6897517337e-13 2.7687692278e-15 1.3485937462e-17 5.7326253088e-20 2.2084578822e-22 4.7152273654e-22 1.8992701467e-19 7.1472355539e-17 2.4209174026e-14 
6.8339422662e-12 1.2861465226e-09 6.833821703e-12 2.4207466408e-14 7.1458763307e-17 1.9141043385e-19 3.7898975484e-19 7.1270086718e-17 8.0517012261e-15 
7.1270086718e-17 3.7898781614e-19 3.9379409707e-20 4.7341923389e-22 9.1391752569e-24 2.4130799524e-24 4.4209644836e-26 4.3814429567e-28 3.0729039811e-30 
1.7034260554e-32 3.4892729165e-34 9.2281461082e-32 2.6048981898e-29 5.8838893138e-27 9.6923404981e-25 7.8055445232e-23 9.6923404981e-25 5.8838904694e-27 
2.6287418043e-29 3.5255131662e-29 4.09741249e-27 3.3757463407e-25 1.4934935539e-23 3.094380107e-23 9.4491167817e-21 2.6696646292e-18 6.8569651715e-16 
1.5498632109e-13 2.9192957079e-11 4.1241206006e-09 3.3294185187e-07 4.1241206006e-09 2.9192957079e-11 1.5498638885e-13 6.8569731124e-16 2.6696702127e-18 
9.5273604744e-21 3.7848825075e-20 1.7789480257e-17 8.0373347002e-15 3.4054128874e-12 1.2827805485e-09 3.6243898194e-07 1.2827416906e-09 3.4049319354e-12 
8.0339321689e-15 1.8148759538e-17 1.0665867989e-16 2.4100845289e-14 3.4049317185e-12 2.4100846983e-14 1.068096238e-16 1.8148754575e-17 1.898906575e-19 
3.4087818199e-21 9.5170855422e-22 1.6329995029e-23 1.5256360366e-25 1.0128505059e-27 5.3380097489e-30 1.3419839651e-31 3.8994417936e-29 1.1745363885e-26 
2.9026014734e-24 4.674697333e-22 3.7738457855e-20 4.7879676615e-22 2.9026018678e-24 1.1806606916e-26 9.5481497593e-27 1.1730885267e-24 1.030552488e-22 
4.9066750466e-21 1.09519788e-24 3.1916872987e-22 8.5518229188e-20 2.07515644e-17 4.4160397283e-15 7.8011214025e-13 1.029074187e-10 7.7190174252e-09 
1.029074187e-10 7.8005971908e-13 4.4153904776e-15 2.0746971893e-17 8.5494667465e-20 3.6763094177e-22 1.4022152486e-20 3.5927299504e-18 7.9244638542e-16 
1.4057217846e-13 1.7779916428e-11 1.282858153e-09 6.810442401e-12 2.4104250361e-14 7.1283645863e-17 7.127013304e-17 2.4100845289e-14 6.8097211897e-12 
1.2827416906e-09 6.8097216234e-12 2.41719266e-14 8.1050109387e-15 7.1283460575e-17 1.1363788644e-18 3.5534539157e-19 5.5558357285e-21 4.8504154054e-23 
3.0339218171e-25 1.513335565e-27 4.537982362e-29 1.46816829e-26 4.8376299423e-24 1.1686508062e-21 1.8867874743e-19 1.7771470881e-17 1.9507595549e-19 
1.2366131044e-21 4.8518751925e-24 2.3560468866e-24 3.0797775975e-22 2.9127701549e-20 1.5097494779e-18 1.4605010242e-23 4.8312065288e-21 1.487706252e-18 
4.1985565017e-16 1.0531937193e-13 2.2291555754e-11 3.5956795319e-09 3.3864512261e-07 3.5956793099e-09 2.2271811131e-11 1.0510972789e-13 4.1855722807e-16 
1.4815947314e-18 1.0229141637e-20 1.702098542e-18 4.8092016116e-16 1.1647170587e-13 2.1939533523e-11 2.4796902309e-09 2.5344358556e-11 1.4057217846e-13 
5.8757770285e-16 1.985083585e-17 8.0339364041e-15 3.4049315017e-12 1.2827416906e-09 3.6243895352e-07 1.2827418017e-09 3.4290324486e-12 3.4129656566e-12 
2.4122395501e-14 3.4479426383e-16 1.243844722e-16 1.7365620917e-18 1.377202244e-20 8.0449297292e-23 3.7798571027e-25 1.3254622737e-26 4.8376354643e-24 
1.558193199e-21 3.7735072231e-19 7.1081575565e-17 8.033961815e-15 7.4696659245e-17 4.0933676262e-19 1.7310218444e-21 5.1714994643e-22 7.2559882668e-20 
7.4752609741e-18 4.2581876212e-16 1.4558301788e-23 4.69742824e-21 1.3272600965e-18 3.2186770246e-16 6.0908743327e-14 7.0102322385e-12 4.4594026388e-11 
3.5953697797e-09 4.453479252e-11 3.1523880186e-13 1.6735917317e-15 7.4042988038e-18 2.9731165349e-20 3.405625625e-19 1.2024195169e-16 3.8826614721e-14 
1.0970194371e-11 2.4796660281e-09 3.5031624179e-07 2.4796742437e-09 1.0970265495e-11 3.8826990803e-14 1.2043219e-16 7.1421871052e-17 2.4100846983e-14 
6.8097211897e-12 1.2827416906e-09 6.833821703e-12 6.8338221366e-12 1.2827416906e-09 6.8106700835e-12 9.1383599635e-14 3.9843308367e-14 4.8863758422e-16 
3.4489343203e-18 1.8287750038e-20 9.155256502e-23 3.2042950157e-24 1.168651816e-21 3.7735072231e-19 1.0662116559e-16 2.4100909663e-14 3.40494603e-12 
2.614379389e-14 1.2108133487e-16 4.4183449169e-19 9.797033471e-20 1.4901776195e-17 1.6882085558e-15 1.0675644803e-13 1.8430195951e-21 6.4923415876e-19 
2.09645644e-16 5.923522984e-14 1.3389582845e-11 1.891650836e-09 1.3704793377e-11 2.232761892e-11 3.1543509666e-13 2.5108231314e-15 1.4808632349e-17 
7.2061965175e-20 3.215611115e-22 5.4228361528e-21 1.7020810678e-18 4.8091899649e-16 1.164713264e-13 2.1939427705e-11 2.4796660281e-09 2.1939445052e-11 
1.1647151613e-13 4.8092016116e-16 1.7032547337e-18 3.8285506645e-19 1.0665900414e-16 2.411861604e-14 3.4129654398e-12 3.4290324486e-12 1.2827418017e-09 
3.6243898194e-07 1.282942752e-09 1.9699394893e-11 1.1178615325e-11 1.179074877e-13 7.2893257279e-16 3.4375093017e-18 2.0081219777e-20 5.834736353e-22 
1.8867890252e-19 7.1081575565e-17 2.4100909663e-14 6.8097428738e-12 1.2827477969e-09 7.9641813977e-12 3.022953185e-14 9.2844181321e-17 1.5130408916e-17 
2.524838562e-15 3.1772213983e-13 2.2582909501e-11 1.3016630441e-19 5.2415470802e-17 1.974613371e-14 6.6949935179e-12 1.8916483935e-09 3.5632382378e-07 
1.8916501698e-09 6.800079163e-12 2.1419592987e-14 6.7221831713e-17 2.2593099433e-19 8.1585342823e-22 3.1550606289e-24 4.760142581e-23 1.3553585366e-20 
3.4040510867e-18 7.2136496868e-16 1.164713264e-13 1.0970194371e-11 1.1647136706e-13 7.2136544513e-16 3.4040541886e-18 1.3572681606e-20 3.4450186315e-21 
5.0767837864e-19 7.1271966073e-17 8.1050244912e-15 2.417569759e-14 6.8106687824e-12 1.28294253e-09 3.9280283887e-11 3.0693065867e-09 2.5120203695e-09 
2.2139814287e-11 1.1741694043e-13 4.8471608637e-16 5.3307360927e-18 7.5189270115e-20 1.7771657823e-17 8.033961815e-15 3.40494603e-12 1.2827477969e-09 
3.624412841e-07 1.9351256153e-09 5.7138230779e-12 1.4170046362e-14 1.7130378443e-15 3.1688559654e-13 4.4847261321e-11 3.6397465042e-09 1.8430157581e-21 
6.4923296969e-19 2.096453396e-16 5.9235155301e-14 1.33895681e-11 1.8916483935e-09 1.3389575039e-11 5.96535828e-14 2.170487649e-16 7.2128608791e-19 
2.3476936748e-21 7.6579753114e-24 2.6153666422e-26 2.9885014249e-25 7.935880122e-23 1.807351349e-20 3.4040510867e-18 4.8091899649e-16 3.8826614721e-14 
4.8091910237e-16 3.4040521207e-18 1.8094995952e-20 4.6748443514e-21 6.4923813957e-19 5.2416645399e-17 8.4130399773e-19 1.8907393348e-17 3.4358361552e-16 
9.102292623e-14 1.9621750405e-11 3.0583373611e-09 3.4689392692e-07 3.5336358906e-07 2.495844198e-09 1.103699597e-11 3.907750588e-14 2.163943446e-15 
1.4803555114e-17 2.5995794771e-19 7.4696890855e-17 2.614379389e-14 7.9641813977e-12 1.9351256153e-09 3.6867049857e-07 6.5240812752e-10 1.1549512431e-12 
1.0754459525e-13 2.2372784181e-11 3.6174820917e-09 3.4221116607e-07 1.4342194921e-23 4.6026175091e-21 1.2996013482e-18 3.1465209348e-16 5.925292944e-14 
6.6949939516e-12 5.9235182406e-14 3.1594437459e-16 1.327255547e-18 4.9011739725e-21 1.657326711e-23 5.2622421145e-26 1.1663717744e-27 1.5070369151e-25 
1.6237308606e-23 9.8307033166e-22 1.3569448816e-20 1.7020812746e-18 1.2024195169e-16 1.7020812746e-18 1.357732965e-20 6.2066160365e-21 1.2984330589e-18 
2.0964532636e-16 1.974613371e-14 2.0964584252e-16 1.3511487624e-18 4.1544592054e-18 1.0183976651e-15 2.0890154027e-13 3.2470633821e-11 3.0692823838e-09 
2.5120201474e-09 2.2139814287e-11 1.1743863802e-13 6.6133689779e-15 1.1544619427e-12 6.1286903727e-15 2.1691678327e-17 4.736159599e-19 1.2108150693e-16 
3.0229528462e-14 5.7138230779e-12 6.5240812752e-10 2.3089982617e-12 6.1365322037e-15 1.695268046e-15 3.1688554233e-13 4.4847261321e-11 3.6397465042e-09 
2.0940041361e-23 2.4856914732e-21 3.8349388253e-19 7.2379838846e-17 8.2435745174e-15 1.9817215021e-14 2.1002278542e-16 1.3047957322e-18 6.2340313384e-21 
2.4918391546e-23 8.6368214341e-26 1.7742317612e-27 2.9870001239e-25 4.7606717489e-23 5.4216745456e-21 3.4046092268e-19 5.4692632802e-21 5.4692632802e-21 