# vtk DataFile Version 5.1
vtk output
ASCII
DATASET STRUCTURED_POINTS
DIMENSIONS 50 50 1
SPACING 1 1 1
ORIGIN 0 0 0
POINT_DATA 2500
FIELD FieldData 10
CellType 1 2500 char
0 0 0 0 0 0 0 0 7 
0 0 0 0 0 0 0 0 4 
0 0 0 0 5 0 0 0 0 
0 0 0 0 0 0 0 3 0 
9 0 0 0 0 0 0 3 0 
0 0 0 0 0 0 0 0 0 
0 0 0 0 0 0 0 0 0 
0 0 0 0 0 0 0 0 0 
0 0 0 0 0 0 0 0 0 
0 0 0 0 0 0 0 0 0 
0 0 0 0 0 0 0 0 0 
0 0 0 0 0 0 0 0 0 
0 0 0 0 0 0 0 0 0 
0 0 0 0 0 0 0 0 0 
0 0 4 0 0 0 0 0 0 
0 0 0 0 0 10 0 0 0 
0 0 0 0 0 0 0 0 0 
0 0 0 0 0 0 0 0 0 
0 0 0 0 0 0 0 0 0 
0 0 0 0 0 0 0 0 0 
0 0 0 0 0 0 0 0 0 
0 0 0 0 0 0 0 0 0 
0 0 9 0 0 0 0 0 0 
0 0 0 0 0 0 0 0 0 
0 0 0 0 0 0 0 0 0 
0 9 0 0 0 0 0 0 0 
0 0 0 0 0 0 5 0 0 
0 0 0 0 0 0 0 0 0 
0 0 0 0 0 0 0 0 9 
0 0 0 0 0 0 0 4 0 
0 0 0 0 0 0 9 0 0 
0 0 0 0 0 0 8 0 0 
0 0 0 0 0 0 0 0 0 
0 0 0 0 0 0 0 3 0 
0 0 0 0 0 0 0 0 0 
0 0 0 4 0 0 0 0 0 
0 0 0 0 0 0 0 0 0 
0 0 0 0 0 0 0 0 0 
0 0 0 0 0 0 0 0 0 
0 0 0 0 0 0 0 0 0 
0 0 0 0 0 5 0 0 0 
0 0 0 1 0 0 0 0 0 
0 0 0 0 0 0 0 0 0 
0 0 0 0 0 0 0 0 0 
5 0 0 0 0 0 0 0 0 
0 0 0 1 0 0 0 0 0 
0 5 0 0 0 0 0 0 1 
0 0 0 0 0 0 1 0 0 
0 0 0 1 0 0 0 0 0 
0 0 0 0 0 0 0 0 0 
0 0 0 0 0 0 0 0 0 
0 0 0 1 0 0 0 0 0 
0 0 0 0 0 0 0 0 0 
0 0 0 0 0 0 0 0 0 
0 0 0 1 5 0 0 0 0 
0 0 0 0 0 0 10 0 0 
0 0 0 0 0 0 0 1 0 
0 0 0 0 0 0 0 0 0 
0 0 0 4 0 0 0 0 1 
1 0 0 0 0 0 0 0 0 
0 0 0 0 0 0 0 0 0 
0 0 0 0 0 0 0 0 0 
0 0 0 0 0 0 0 1 0 
0 1 0 0 0 0 0 0 0 
0 0 0 0 0 0 0 0 0 
0 0 0 0 0 0 0 0 0 
0 0 0 0 0 0 0 0 0 
0 0 0 0 0 0 0 0 0 
0 0 0 0 0 0 0 0 0 
0 0 0 0 0 3 0 0 1 
0 0 0 0 0 0 0 0 0 
1 0 1 0 0 0 0 0 0 
0 0 0 0 0 0 0 0 0 
0 0 0 0 1 0 0 0 0 
1 0 0 0 0 0 0 0 0 
0 0 0 0 0 0 0 0 1 
0 0 0 0 0 0 0 0 0 
0 0 0 0 0 0 0 0 0 
0 0 0 7 0 0 0 0 0 
0 0 0 0 1 5 1 0 0 
0 0 1 0 0 0 0 0 0 
0 0 0 0 10 0 0 0 0 
0 0 0 0 0 0 0 0 0 
0 0 0 0 0 0 0 0 0 
0 0 0 0 0 1 0 0 0 
0 0 0 0 1 0 0 0 0 
0 0 0 0 0 3 0 0 0 
10 0 0 0 0 0 0 0 0 
0 0 0 0 0 0 10 0 0 
0 0 4 4 0 0 0 0 0 
1 0 0 0 0 0 0 0 0 
0 0 0 0 0 0 0 0 0 
0 3 0 0 0 0 0 1 1 
0 0 0 0 0 0 0 0 0 
0 0 0 0 0 0 0 0 0 
0 0 0 0 0 0 0 0 0 
0 0 0 0 0 1 0 0 0 
0 0 0 3 0 0 0 0 0 
0 0 0 0 0 0 0 0 0 
0 0 0 0 0 0 0 0 0 
0 0 0 0 0 0 0 0 1 
0 0 0 0 0 0 0 0 0 
0 0 0 0 0 1 0 0 0 
0 0 0 0 0 0 0 1 0 
0 0 0 0 0 0 0 0 0 
0 0 0 0 0 0 0 0 0 
0 0 0 0 0 0 0 0 0 
0 0 0 0 0 0 1 0 0 
0 0 0 1 0 0 0 0 0 
1 0 0 0 0 0 0 0 0 
0 0 0 0 0 0 0 0 0 
0 0 0 0 0 0 0 0 3 
0 0 0 0 0 0 0 0 0 
0 0 1 1 0 0 0 0 0 
0 1 0 0 0 4 0 0 0 
9 0 0 0 0 0 0 0 0 
0 0 0 0 0 0 0 0 9 
0 0 0 0 0 0 0 0 0 
0 0 0 0 1 0 0 0 0 
0 0 0 0 0 0 0 0 0 
0 0 0 0 0 0 0 0 0 
0 0 0 0 0 0 0 0 0 
0 0 0 0 0 0 0 0 0 
0 0 0 0 0 0 0 0 0 
0 0 0 0 0 0 0 0 0 
0 1 0 0 5 0 0 0 0 
0 0 1 0 0 0 0 0 0 
0 0 0 0 0 0 0 0 0 
0 0 0 0 0 0 0 0 0 
0 0 0 0 0 0 0 0 0 
0 0 0 0 0 0 0 1 0 
0 0 0 0 0 0 0 1 0 
0 0 1 0 0 0 0 0 0 
0 0 5 0 0 0 0 0 0 
0 0 0 0 0 0 0 1 0 
0 0 0 1 0 0 0 0 0 
0 1 1 0 0 0 0 0 0 
0 0 0 0 0 0 0 0 0 
0 0 0 0 0 0 0 0 0 
0 0 0 0 0 0 0 0 0 
0 0 0 0 0 0 0 0 0 
0 0 0 0 0 0 0 0 0 
0 0 0 0 0 0 0 1 0 
0 0 1 0 0 0 0 0 0 
0 0 0 0 3 0 0 0 4 
0 0 0 0 0 0 0 0 0 
0 0 0 0 1 0 0 0 0 
1 0 0 0 0 0 0 0 0 
0 0 0 0 0 0 1 1 0 
0 0 0 0 0 0 0 0 0 
0 0 0 0 0 0 0 1 0 
0 0 0 0 1 0 0 0 0 
0 0 0 0 0 0 1 0 0 
1 0 0 0 0 0 0 0 0 
1 0 0 0 0 0 0 0 0 
0 0 0 0 0 0 0 0 0 
0 0 0 0 0 0 0 0 0 
0 0 0 0 0 0 0 0 0 
0 0 0 0 0 0 0 0 0 
0 0 0 0 0 0 0 0 1 
0 0 0 0 0 0 0 0 0 
0 0 0 7 0 0 4 0 0 
0 0 0 0 0 0 0 0 0 
0 0 0 0 10 0 0 0 0 
0 0 1 0 0 0 0 1 0 
0 0 0 1 0 0 0 1 0 
0 0 0 0 0 0 0 0 0 
0 0 0 0 0 0 0 0 0 
0 0 0 0 0 0 0 0 0 
0 0 0 0 0 0 0 0 0 
0 0 0 0 0 0 0 0 0 
0 0 0 0 0 0 0 0 0 
0 0 0 0 0 0 0 0 0 
0 0 0 0 0 0 0 0 1 
0 0 0 0 0 1 0 0 0 
0 0 0 1 0 0 0 0 0 
0 0 0 0 0 0 0 0 0 
0 0 0 0 0 0 0 0 0 
0 0 0 0 0 0 0 0 0 
1 0 0 0 0 0 1 1 0 
0 0 0 1 0 7 0 0 0 
0 0 0 5 5 0 0 0 0 
3 0 0 0 0 0 0 0 0 
0 0 0 0 0 0 0 0 0 
0 0 0 0 0 1 0 0 0 
0 0 0 0 0 0 1 0 0 
0 0 0 0 0 0 1 0 0 
0 0 0 0 0 0 0 0 1 
0 0 0 0 9 0 0 0 0 
0 0 0 0 0 0 0 0 0 
0 0 1 0 0 0 0 0 0 
0 1 0 0 1 0 0 0 0 
0 0 0 0 0 0 0 0 0 
0 0 0 0 0 0 0 0 0 
0 0 0 0 0 0 0 0 0 
0 0 0 0 0 0 0 0 0 
0 0 0 0 1 0 0 0 0 
0 0 0 0 0 1 0 0 0 
0 0 0 0 0 0 0 0 1 
1 0 0 0 0 0 0 0 0 
0 0 0 4 0 0 0 0 0 
0 0 0 0 0 0 0 0 0 
0 1 0 0 0 0 0 0 0 
0 0 0 0 0 0 0 0 0 
0 5 0 0 0 0 0 0 0 
0 0 0 0 0 0 0 0 0 
0 0 0 0 0 0 0 1 0 
0 0 0 0 0 1 0 1 0 
0 1 0 0 0 0 0 0 0 
0 0 1 0 0 0 0 0 0 
0 1 0 0 0 0 0 0 0 
0 0 0 0 0 0 0 0 0 
0 0 0 0 0 0 0 0 0 
0 0 0 0 0 0 0 0 0 
0 0 0 0 0 0 1 0 0 
0 0 0 0 0 0 0 0 0 
0 0 0 0 0 0 0 0 0 
0 0 0 0 0 0 0 0 0 
1 7 0 0 0 0 0 0 0 
0 0 0 0 0 0 0 0 0 
0 0 0 0 0 0 0 0 0 
0 1 0 0 0 0 0 0 0 
0 0 0 0 0 0 0 0 0 
0 0 0 1 0 0 0 0 0 
0 0 0 0 0 0 0 0 0 
0 0 1 0 0 0 0 0 1 
0 0 0 0 0 0 0 0 0 
0 0 0 0 0 0 0 0 0 
0 0 0 0 0 0 0 0 0 
0 0 0 0 0 0 0 0 0 
0 0 0 0 0 0 0 0 0 
0 0 0 0 0 3 0 0 0 
0 0 0 0 1 0 0 0 0 
0 0 0 0 0 0 0 9 0 
0 0 7 0 0 0 0 0 0 
9 0 0 0 0 0 0 0 0 
0 0 3 0 0 0 0 0 0 
0 0 0 0 0 0 0 1 5 
0 0 0 0 0 0 0 0 0 
0 0 0 0 0 0 0 0 0 
0 0 0 0 0 0 0 0 0 
0 0 0 0 0 0 0 0 0 
0 0 0 0 0 0 0 0 0 
9 0 0 0 0 0 0 0 9 
0 0 0 0 0 0 0 0 0 
0 0 0 0 0 0 0 0 0 
0 0 0 0 5 0 0 0 0 
0 0 0 0 0 0 0 0 0 
0 0 0 0 0 0 0 0 0 
0 10 0 0 0 0 0 0 0 
0 0 0 0 0 0 0 0 0 
0 0 0 0 0 0 0 0 0 
0 0 0 0 0 0 0 0 0 
0 0 0 0 0 0 0 0 0 
0 0 0 0 0 0 0 0 0 
0 0 0 0 0 0 0 0 0 
0 0 0 0 0 0 0 0 0 
9 0 0 0 0 0 0 0 0 
9 0 0 0 0 0 0 0 0 
0 0 0 0 0 0 0 0 0 
0 0 10 0 0 9 0 0 0 
0 0 0 0 0 0 0 0 0 
0 0 0 0 0 0 0 0 0 
0 0 0 0 0 0 0 0 0 
9 0 0 0 0 9 0 0 0 
0 0 0 0 0 0 0 0 0 
0 9 0 0 0 0 0 0 0 
0 7 0 0 0 0 0 0 0 
0 0 0 0 0 0 0 0 0 
0 0 0 0 0 0 0 0 0 
0 0 0 0 0 0 0 0 0 
0 0 0 0 0 0 0 0 0 
0 5 0 0 0 0 0 0 0 
0 7 0 0 0 0 0 0 0 
0 0 0 0 0 0 0 0 0 
0 0 0 0 0 0 0 0 0 
0 0 0 0 0 0 0 0 0 
0 0 0 0 0 0 0 
CellId 1 2500 long
0 0 0 0 0 0 0 0 293 
0 0 0 0 0 0 0 0 211 
0 0 0 0 209 0 0 0 0 
0 0 0 0 0 0 0 344 0 
247 0 0 0 0 0 0 230 0 
0 0 0 0 0 0 0 0 0 
0 0 0 0 0 0 0 0 0 
0 0 0 0 0 0 0 0 0 
0 0 0 0 0 0 0 0 0 
0 0 0 0 0 0 0 0 0 
0 0 0 0 0 0 0 0 0 
0 0 0 0 0 0 0 0 0 
0 0 0 0 0 0 0 0 0 
0 0 0 0 0 0 0 0 0 
0 0 217 0 0 0 0 0 0 
0 0 0 0 0 221 0 0 0 
0 0 0 0 0 0 0 0 0 
0 0 0 0 0 0 0 0 0 
0 0 0 0 0 0 0 0 0 
0 0 0 0 0 0 0 0 0 
0 0 0 0 0 0 0 0 0 
0 0 0 0 0 0 0 0 0 
0 0 296 0 0 0 0 0 0 
0 0 0 0 0 0 0 0 0 
0 0 0 0 0 0 0 0 0 
0 307 0 0 0 0 0 0 0 
0 0 0 0 0 0 186 0 0 
0 0 0 0 0 0 0 0 0 
0 0 0 0 0 0 0 0 298 
0 0 0 0 0 0 0 219 0 
0 0 0 0 0 0 307 0 0 
0 0 0 0 0 0 261 0 0 
0 0 0 0 0 0 0 0 0 
0 0 0 0 0 0 0 283 0 
0 0 0 0 0 0 0 0 0 
0 0 0 215 0 0 0 0 0 
0 0 0 0 0 0 0 0 0 
0 0 0 0 0 0 0 0 0 
0 0 0 0 0 0 0 0 0 
0 0 0 0 0 0 0 0 0 
0 0 0 0 0 166 0 0 0 
0 0 0 77 0 0 0 0 0 
0 0 0 0 0 0 0 0 0 
0 0 0 0 0 0 0 0 0 
208 0 0 0 0 0 0 0 0 
0 0 0 63 0 0 0 0 0 
0 166 0 0 0 0 0 0 78 
0 0 0 0 0 0 43 0 0 
0 0 0 11 0 0 0 0 0 
0 0 0 0 0 0 0 0 0 
0 0 0 0 0 0 0 0 0 
0 0 0 62 0 0 0 0 0 
0 0 0 0 0 0 0 0 0 
0 0 0 0 0 0 0 0 0 
0 0 0 71 337 0 0 0 0 
0 0 0 0 0 0 223 0 0 
0 0 0 0 0 0 0 38 0 
0 0 0 0 0 0 0 0 0 
0 0 0 212 0 0 0 0 67 
100 0 0 0 0 0 0 0 0 
0 0 0 0 0 0 0 0 0 
0 0 0 0 0 0 0 0 0 
0 0 0 0 0 0 0 96 0 
0 25 0 0 0 0 0 0 0 
0 0 0 0 0 0 0 0 0 
0 0 0 0 0 0 0 0 0 
0 0 0 0 0 0 0 0 0 
0 0 0 0 0 0 0 0 0 
0 0 0 0 0 0 0 0 0 
0 0 0 0 0 341 0 0 68 
0 0 0 0 0 0 0 0 0 
31 0 7 0 0 0 0 0 0 
0 0 0 0 0 0 0 0 0 
0 0 0 0 69 0 0 0 0 
22 0 0 0 0 0 0 0 0 
0 0 0 0 0 0 0 0 33 
0 0 0 0 0 0 0 0 0 
0 0 0 0 0 0 0 0 0 
0 0 0 263 0 0 0 0 0 
0 0 0 0 8 118 61 0 0 
0 0 60 0 0 0 0 0 0 
0 0 0 0 222 0 0 0 0 
0 0 0 0 0 0 0 0 0 
0 0 0 0 0 0 0 0 0 
0 0 0 0 0 23 0 0 0 
0 0 0 0 85 0 0 0 0 
0 0 0 0 0 348 0 0 0 
222 0 0 0 0 0 0 0 0 
0 0 0 0 0 0 338 0 0 
0 0 214 214 0 0 0 0 0 
5 0 0 0 0 0 0 0 0 
0 0 0 0 0 0 0 0 0 
0 348 0 0 0 0 0 86 53 
0 0 0 0 0 0 0 0 0 
0 0 0 0 0 0 0 0 0 
0 0 0 0 0 0 0 0 0 
0 0 0 0 0 72 0 0 0 
0 0 0 340 0 0 0 0 0 
0 0 0 0 0 0 0 0 0 
0 0 0 0 0 0 0 0 0 
0 0 0 0 0 0 0 0 59 
0 0 0 0 0 0 0 0 0 
0 0 0 0 0 97 0 0 0 
0 0 0 0 0 0 0 51 0 
0 0 0 0 0 0 0 0 0 
0 0 0 0 0 0 0 0 0 
0 0 0 0 0 0 0 0 0 
0 0 0 0 0 0 54 0 0 
0 0 0 70 0 0 0 0 0 
3 0 0 0 0 0 0 0 0 
0 0 0 0 0 0 0 0 0 
0 0 0 0 0 0 0 0 233 
0 0 0 0 0 0 0 0 0 
0 0 42 57 0 0 0 0 0 
0 76 0 0 0 213 0 0 0 
303 0 0 0 0 0 0 0 0 
0 0 0 0 0 0 0 0 243 
0 0 0 0 0 0 0 0 0 
0 0 0 0 66 0 0 0 0 
0 0 0 0 0 0 0 0 0 
0 0 0 0 0 0 0 0 0 
0 0 0 0 0 0 0 0 0 
0 0 0 0 0 0 0 0 0 
0 0 0 0 0 0 0 0 0 
0 0 0 0 0 0 0 0 0 
0 84 0 0 154 0 0 0 0 
0 0 40 0 0 0 0 0 0 
0 0 0 0 0 0 0 0 0 
0 0 0 0 0 0 0 0 0 
0 0 0 0 0 0 0 0 0 
0 0 0 0 0 0 0 34 0 
0 0 0 0 0 0 0 88 0 
0 0 82 0 0 0 0 0 0 
0 0 169 0 0 0 0 0 0 
0 0 0 0 0 0 0 44 0 
0 0 0 29 0 0 0 0 0 
0 2 91 0 0 0 0 0 0 
0 0 0 0 0 0 0 0 0 
0 0 0 0 0 0 0 0 0 
0 0 0 0 0 0 0 0 0 
0 0 0 0 0 0 0 0 0 
0 0 0 0 0 0 0 0 0 
0 0 0 0 0 0 0 27 0 
0 0 41 0 0 0 0 0 0 
0 0 0 0 347 0 0 0 218 
0 0 0 0 0 0 0 0 0 
0 0 0 0 98 0 0 0 0 
10 0 0 0 0 0 0 0 0 
0 0 0 0 0 0 4 58 0 
0 0 0 0 0 0 0 0 0 
0 0 0 0 0 0 0 73 0 
0 0 0 0 75 0 0 0 0 
0 0 0 0 0 0 13 0 0 
55 0 0 0 0 0 0 0 0 
32 0 0 0 0 0 0 0 0 
0 0 0 0 0 0 0 0 0 
0 0 0 0 0 0 0 0 0 
0 0 0 0 0 0 0 0 0 
0 0 0 0 0 0 0 0 0 
0 0 0 0 0 0 0 0 49 
0 0 0 0 0 0 0 0 0 
0 0 0 245 0 0 216 0 0 
0 0 0 0 0 0 0 0 0 
0 0 0 0 326 0 0 0 0 
0 0 47 0 0 0 0 89 0 
0 0 0 37 0 0 0 30 0 
0 0 0 0 0 0 0 0 0 
0 0 0 0 0 0 0 0 0 
0 0 0 0 0 0 0 0 0 
0 0 0 0 0 0 0 0 0 
0 0 0 0 0 0 0 0 0 
0 0 0 0 0 0 0 0 0 
0 0 0 0 0 0 0 0 0 
0 0 0 0 0 0 0 0 95 
0 0 0 0 0 90 0 0 0 
0 0 0 48 0 0 0 0 0 
0 0 0 0 0 0 0 0 0 
0 0 0 0 0 0 0 0 0 
0 0 0 0 0 0 0 0 0 
83 0 0 0 0 0 52 87 0 
0 0 0 14 0 349 0 0 0 
0 0 0 171 171 0 0 0 0 
345 0 0 0 0 0 0 0 0 
0 0 0 0 0 0 0 0 0 
0 0 0 0 0 9 0 0 0 
0 0 0 0 0 0 21 0 0 
0 0 0 0 0 0 99 0 0 
0 0 0 0 0 0 0 0 64 
0 0 0 0 323 0 0 0 0 
0 0 0 0 0 0 0 0 0 
0 0 26 0 0 0 0 0 0 
0 80 0 0 45 0 0 0 0 
0 0 0 0 0 0 0 0 0 
0 0 0 0 0 0 0 0 0 
0 0 0 0 0 0 0 0 0 
0 0 0 0 0 0 0 0 0 
0 0 0 0 1 0 0 0 0 
0 0 0 0 0 94 0 0 0 
0 0 0 0 0 0 0 0 93 
35 0 0 0 0 0 0 0 0 
0 0 0 325 0 0 0 0 0 
0 0 0 0 0 0 0 0 0 
0 15 0 0 0 0 0 0 0 
0 0 0 0 0 0 0 0 0 
0 147 0 0 0 0 0 0 0 
0 0 0 0 0 0 0 0 0 
0 0 0 0 0 0 0 39 0 
0 0 0 0 0 19 0 46 0 
0 36 0 0 0 0 0 0 0 
0 0 50 0 0 0 0 0 0 
0 17 0 0 0 0 0 0 0 
0 0 0 0 0 0 0 0 0 
0 0 0 0 0 0 0 0 0 
0 0 0 0 0 0 0 0 0 
0 0 0 0 0 0 18 0 0 
0 0 0 0 0 0 0 0 0 
0 0 0 0 0 0 0 0 0 
0 0 0 0 0 0 0 0 0 
20 275 0 0 0 0 0 0 0 
0 0 0 0 0 0 0 0 0 
0 0 0 0 0 0 0 0 0 
0 24 0 0 0 0 0 0 0 
0 0 0 0 0 0 0 0 0 
0 0 0 74 0 0 0 0 0 
0 0 0 0 0 0 0 0 0 
0 0 6 0 0 0 0 0 56 
0 0 0 0 0 0 0 0 0 
0 0 0 0 0 0 0 0 0 
0 0 0 0 0 0 0 0 0 
0 0 0 0 0 0 0 0 0 
0 0 0 0 0 0 0 0 0 
0 0 0 0 0 332 0 0 0 
0 0 0 0 16 0 0 0 0 
0 0 0 0 0 0 0 346 0 
0 0 310 0 0 0 0 0 0 
320 0 0 0 0 0 0 0 0 
0 0 302 0 0 0 0 0 0 
0 0 0 0 0 0 0 81 202 
0 0 0 0 0 0 0 0 0 
0 0 0 0 0 0 0 0 0 
0 0 0 0 0 0 0 0 0 
0 0 0 0 0 0 0 0 0 
0 0 0 0 0 0 0 0 0 
244 0 0 0 0 0 0 0 292 
0 0 0 0 0 0 0 0 0 
0 0 0 0 0 0 0 0 0 
0 0 0 0 179 0 0 0 0 
0 0 0 0 0 0 0 0 0 
0 0 0 0 0 0 0 0 0 
0 339 0 0 0 0 0 0 0 
0 0 0 0 0 0 0 0 0 
0 0 0 0 0 0 0 0 0 
0 0 0 0 0 0 0 0 0 
0 0 0 0 0 0 0 0 0 
0 0 0 0 0 0 0 0 0 
0 0 0 0 0 0 0 0 0 
0 0 0 0 0 0 0 0 0 
316 0 0 0 0 0 0 0 0 
295 0 0 0 0 0 0 0 0 
0 0 0 0 0 0 0 0 0 
0 0 220 0 0 267 0 0 0 
0 0 0 0 0 0 0 0 0 
0 0 0 0 0 0 0 0 0 
0 0 0 0 0 0 0 0 0 
306 0 0 0 0 315 0 0 0 
0 0 0 0 0 0 0 0 0 
0 318 0 0 0 0 0 0 0 
0 288 0 0 0 0 0 0 0 
0 0 0 0 0 0 0 0 0 
0 0 0 0 0 0 0 0 0 
0 0 0 0 0 0 0 0 0 
0 0 0 0 0 0 0 0 0 
0 187 0 0 0 0 0 0 0 
0 293 0 0 0 0 0 0 0 
0 0 0 0 0 0 0 0 0 
0 0 0 0 0 0 0 0 0 
0 0 0 0 0 0 0 0 0 
0 0 0 0 0 0 0 
ClusterId 1 2500 long
0 0 0 0 0 0 0 0 293 
0 0 0 0 0 0 0 0 211 
0 0 0 0 209 0 0 0 0 
0 0 0 0 0 0 0 344 0 
247 0 0 0 0 0 0 230 0 
0 0 0 0 0 0 0 0 0 
0 0 0 0 0 0 0 0 0 
0 0 0 0 0 0 0 0 0 
0 0 0 0 0 0 0 0 0 
0 0 0 0 0 0 0 0 0 
0 0 0 0 0 0 0 0 0 
0 0 0 0 0 0 0 0 0 
0 0 0 0 0 0 0 0 0 
0 0 0 0 0 0 0 0 0 
0 0 217 0 0 0 0 0 0 
0 0 0 0 0 221 0 0 0 
0 0 0 0 0 0 0 0 0 
0 0 0 0 0 0 0 0 0 
0 0 0 0 0 0 0 0 0 
0 0 0 0 0 0 0 0 0 
0 0 0 0 0 0 0 0 0 
0 0 0 0 0 0 0 0 0 
0 0 296 0 0 0 0 0 0 
0 0 0 0 0 0 0 0 0 
0 0 0 0 0 0 0 0 0 
0 307 0 0 0 0 0 0 0 
0 0 0 0 0 0 186 0 0 
0 0 0 0 0 0 0 0 0 
0 0 0 0 0 0 0 0 298 
0 0 0 0 0 0 0 219 0 
0 0 0 0 0 0 307 0 0 
0 0 0 0 0 0 261 0 0 
0 0 0 0 0 0 0 0 0 
0 0 0 0 0 0 0 283 0 
0 0 0 0 0 0 0 0 0 
0 0 0 215 0 0 0 0 0 
0 0 0 0 0 0 0 0 0 
0 0 0 0 0 0 0 0 0 
0 0 0 0 0 0 0 0 0 
0 0 0 0 0 0 0 0 0 
0 0 0 0 0 166 0 0 0 
0 0 0 77 0 0 0 0 0 
0 0 0 0 0 0 0 0 0 
0 0 0 0 0 0 0 0 0 
208 0 0 0 0 0 0 0 0 
0 0 0 63 0 0 0 0 0 
0 166 0 0 0 0 0 0 78 
0 0 0 0 0 0 43 0 0 
0 0 0 11 0 0 0 0 0 
0 0 0 0 0 0 0 0 0 
0 0 0 0 0 0 0 0 0 
0 0 0 62 0 0 0 0 0 
0 0 0 0 0 0 0 0 0 
0 0 0 0 0 0 0 0 0 
0 0 0 71 337 0 0 0 0 
0 0 0 0 0 0 223 0 0 
0 0 0 0 0 0 0 38 0 
0 0 0 0 0 0 0 0 0 
0 0 0 212 0 0 0 0 67 
100 0 0 0 0 0 0 0 0 
0 0 0 0 0 0 0 0 0 
0 0 0 0 0 0 0 0 0 
0 0 0 0 0 0 0 96 0 
0 25 0 0 0 0 0 0 0 
0 0 0 0 0 0 0 0 0 
0 0 0 0 0 0 0 0 0 
0 0 0 0 0 0 0 0 0 
0 0 0 0 0 0 0 0 0 
0 0 0 0 0 0 0 0 0 
0 0 0 0 0 341 0 0 68 
0 0 0 0 0 0 0 0 0 
31 0 7 0 0 0 0 0 0 
0 0 0 0 0 0 0 0 0 
0 0 0 0 69 0 0 0 0 
22 0 0 0 0 0 0 0 0 
0 0 0 0 0 0 0 0 33 
0 0 0 0 0 0 0 0 0 
0 0 0 0 0 0 0 0 0 
0 0 0 263 0 0 0 0 0 
0 0 0 0 8 118 61 0 0 
0 0 60 0 0 0 0 0 0 
0 0 0 0 222 0 0 0 0 
0 0 0 0 0 0 0 0 0 
0 0 0 0 0 0 0 0 0 
0 0 0 0 0 23 0 0 0 
0 0 0 0 85 0 0 0 0 
0 0 0 0 0 348 0 0 0 
222 0 0 0 0 0 0 0 0 
0 0 0 0 0 0 338 0 0 
0 0 214 214 0 0 0 0 0 
5 0 0 0 0 0 0 0 0 
0 0 0 0 0 0 0 0 0 
0 348 0 0 0 0 0 86 53 
0 0 0 0 0 0 0 0 0 
0 0 0 0 0 0 0 0 0 
0 0 0 0 0 0 0 0 0 
0 0 0 0 0 72 0 0 0 
0 0 0 340 0 0 0 0 0 
0 0 0 0 0 0 0 0 0 
0 0 0 0 0 0 0 0 0 
0 0 0 0 0 0 0 0 59 
0 0 0 0 0 0 0 0 0 
0 0 0 0 0 97 0 0 0 
0 0 0 0 0 0 0 51 0 
0 0 0 0 0 0 0 0 0 
0 0 0 0 0 0 0 0 0 
0 0 0 0 0 0 0 0 0 
0 0 0 0 0 0 54 0 0 
0 0 0 70 0 0 0 0 0 
3 0 0 0 0 0 0 0 0 
0 0 0 0 0 0 0 0 0 
0 0 0 0 0 0 0 0 233 
0 0 0 0 0 0 0 0 0 
0 0 42 57 0 0 0 0 0 
0 76 0 0 0 213 0 0 0 
303 0 0 0 0 0 0 0 0 
0 0 0 0 0 0 0 0 243 
0 0 0 0 0 0 0 0 0 
0 0 0 0 66 0 0 0 0 
0 0 0 0 0 0 0 0 0 
0 0 0 0 0 0 0 0 0 
0 0 0 0 0 0 0 0 0 
0 0 0 0 0 0 0 0 0 
0 0 0 0 0 0 0 0 0 
0 0 0 0 0 0 0 0 0 
0 84 0 0 154 0 0 0 0 
0 0 40 0 0 0 0 0 0 
0 0 0 0 0 0 0 0 0 
0 0 0 0 0 0 0 0 0 
0 0 0 0 0 0 0 0 0 
0 0 0 0 0 0 0 34 0 
0 0 0 0 0 0 0 88 0 
0 0 82 0 0 0 0 0 0 
0 0 169 0 0 0 0 0 0 
0 0 0 0 0 0 0 44 0 
0 0 0 29 0 0 0 0 0 
0 2 91 0 0 0 0 0 0 
0 0 0 0 0 0 0 0 0 
0 0 0 0 0 0 0 0 0 
0 0 0 0 0 0 0 0 0 
0 0 0 0 0 0 0 0 0 
0 0 0 0 0 0 0 0 0 
0 0 0 0 0 0 0 27 0 
0 0 41 0 0 0 0 0 0 
0 0 0 0 347 0 0 0 218 
0 0 0 0 0 0 0 0 0 
0 0 0 0 98 0 0 0 0 
10 0 0 0 0 0 0 0 0 
0 0 0 0 0 0 4 58 0 
0 0 0 0 0 0 0 0 0 
0 0 0 0 0 0 0 73 0 
0 0 0 0 75 0 0 0 0 
0 0 0 0 0 0 13 0 0 
55 0 0 0 0 0 0 0 0 
32 0 0 0 0 0 0 0 0 
0 0 0 0 0 0 0 0 0 
0 0 0 0 0 0 0 0 0 
0 0 0 0 0 0 0 0 0 
0 0 0 0 0 0 0 0 0 
0 0 0 0 0 0 0 0 49 
0 0 0 0 0 0 0 0 0 
0 0 0 245 0 0 216 0 0 
0 0 0 0 0 0 0 0 0 
0 0 0 0 326 0 0 0 0 
0 0 47 0 0 0 0 89 0 
0 0 0 37 0 0 0 30 0 
0 0 0 0 0 0 0 0 0 
0 0 0 0 0 0 0 0 0 
0 0 0 0 0 0 0 0 0 
0 0 0 0 0 0 0 0 0 
0 0 0 0 0 0 0 0 0 
0 0 0 0 0 0 0 0 0 
0 0 0 0 0 0 0 0 0 
0 0 0 0 0 0 0 0 95 
0 0 0 0 0 90 0 0 0 
0 0 0 48 0 0 0 0 0 
0 0 0 0 0 0 0 0 0 
0 0 0 0 0 0 0 0 0 
0 0 0 0 0 0 0 0 0 
83 0 0 0 0 0 52 87 0 
0 0 0 14 0 349 0 0 0 
0 0 0 171 171 0 0 0 0 
345 0 0 0 0 0 0 0 0 
0 0 0 0 0 0 0 0 0 
0 0 0 0 0 9 0 0 0 
0 0 0 0 0 0 21 0 0 
0 0 0 0 0 0 99 0 0 
0 0 0 0 0 0 0 0 64 
0 0 0 0 323 0 0 0 0 
0 0 0 0 0 0 0 0 0 
0 0 26 0 0 0 0 0 0 
0 80 0 0 45 0 0 0 0 
0 0 0 0 0 0 0 0 0 
0 0 0 0 0 0 0 0 0 
0 0 0 0 0 0 0 0 0 
0 0 0 0 0 0 0 0 0 
0 0 0 0 1 0 0 0 0 
0 0 0 0 0 94 0 0 0 
0 0 0 0 0 0 0 0 93 
35 0 0 0 0 0 0 0 0 
0 0 0 325 0 0 0 0 0 
0 0 0 0 0 0 0 0 0 
0 15 0 0 0 0 0 0 0 
0 0 0 0 0 0 0 0 0 
0 147 0 0 0 0 0 0 0 
0 0 0 0 0 0 0 0 0 
0 0 0 0 0 0 0 39 0 
0 0 0 0 0 19 0 46 0 
0 36 0 0 0 0 0 0 0 
0 0 50 0 0 0 0 0 0 
0 17 0 0 0 0 0 0 0 
0 0 0 0 0 0 0 0 0 
0 0 0 0 0 0 0 0 0 
0 0 0 0 0 0 0 0 0 
0 0 0 0 0 0 18 0 0 
0 0 0 0 0 0 0 0 0 
0 0 0 0 0 0 0 0 0 
0 0 0 0 0 0 0 0 0 
20 275 0 0 0 0 0 0 0 
0 0 0 0 0 0 0 0 0 
0 0 0 0 0 0 0 0 0 
0 24 0 0 0 0 0 0 0 
0 0 0 0 0 0 0 0 0 
0 0 0 74 0 0 0 0 0 
0 0 0 0 0 0 0 0 0 
0 0 6 0 0 0 0 0 56 
0 0 0 0 0 0 0 0 0 
0 0 0 0 0 0 0 0 0 
0 0 0 0 0 0 0 0 0 
0 0 0 0 0 0 0 0 0 
0 0 0 0 0 0 0 0 0 
0 0 0 0 0 332 0 0 0 
0 0 0 0 16 0 0 0 0 
0 0 0 0 0 0 0 346 0 
0 0 310 0 0 0 0 0 0 
320 0 0 0 0 0 0 0 0 
0 0 302 0 0 0 0 0 0 
0 0 0 0 0 0 0 81 202 
0 0 0 0 0 0 0 0 0 
0 0 0 0 0 0 0 0 0 
0 0 0 0 0 0 0 0 0 
0 0 0 0 0 0 0 0 0 
0 0 0 0 0 0 0 0 0 
244 0 0 0 0 0 0 0 292 
0 0 0 0 0 0 0 0 0 
0 0 0 0 0 0 0 0 0 
0 0 0 0 179 0 0 0 0 
0 0 0 0 0 0 0 0 0 
0 0 0 0 0 0 0 0 0 
0 339 0 0 0 0 0 0 0 
0 0 0 0 0 0 0 0 0 
0 0 0 0 0 0 0 0 0 
0 0 0 0 0 0 0 0 0 
0 0 0 0 0 0 0 0 0 
0 0 0 0 0 0 0 0 0 
0 0 0 0 0 0 0 0 0 
0 0 0 0 0 0 0 0 0 
316 0 0 0 0 0 0 0 0 
295 0 0 0 0 0 0 0 0 
0 0 0 0 0 0 0 0 0 
0 0 220 0 0 267 0 0 0 
0 0 0 0 0 0 0 0 0 
0 0 0 0 0 0 0 0 0 
0 0 0 0 0 0 0 0 0 
306 0 0 0 0 315 0 0 0 
0 0 0 0 0 0 0 0 0 
0 318 0 0 0 0 0 0 0 
0 288 0 0 0 0 0 0 0 
0 0 0 0 0 0 0 0 0 
0 0 0 0 0 0 0 0 0 
0 0 0 0 0 0 0 0 0 
0 0 0 0 0 0 0 0 0 
0 187 0 0 0 0 0 0 0 
0 293 0 0 0 0 0 0 0 
0 0 0 0 0 0 0 0 0 
0 0 0 0 0 0 0 0 0 
0 0 0 0 0 0 0 0 0 
0 0 0 0 0 0 0 
cytokine 1 2500 double
0 0 0 0 0 0 0 0 0 
0 0 0 0 0 0 0 0 0 
0 0 0 0 0 0 0 0 0 
0 0 0 0 0 0 0 0 0 
0 0 0 0 0 0 0 0 0 
0 0 0 0 0 0 0 0 0 
0 0 0 0 0 0 0 0 0 
0 0 0 0 0 0 0 0 0 
0 0 0 0 0 0 0 0 0 
0 0 0 0 0 0 0 0 0 
0 0 0 0 0 0 0 0 0 
0 0 0 0 0 0 0 0 0 
0 0 0 0 0 0 0 0 0 
0 0 0 0 0 0 0 0 0 
0 0 0 0 0 0 0 0 0 
0 0 0 0 0 0 0 0 0 
0 0 0 0 0 0 0 0 0 
0 0 0 0 0 0 0 0 0 
0 0 0 0 0 0 0 0 0 
0 0 0 0 0 0 0 0 0 
0 0 0 0 0 0 0 0 0 
0 0 0 0 0 0 0 0 0 
0 0 0 0 0 0 0 0 0 
0 0 0 0 0 0 0 0 0 
0 0 0 0 0 0 0 0 0 
0 0 0 0 0 0 0 0 0 
0 0 0 0 0 0 0 0 0 
0 0 0 0 0 0 0 0 0 
0 0 0 0 0 0 0 0 0 
0 0 0 0 0 0 0 0 0 
0 0 0 0 0 0 0 0 0 
0 0 0 0 0 0 0 0 0 
0 0 0 0 0 0 0 0 0 
0 0 0 0 0 0 0 0 0 
0 0 0 0 0 0 0 0 0 
0 0 0 0 0 0 0 0 0 
0 0 0 0 0 0 0 0 0 
0 0 0 0 0 0 0 0 0 
0 0 0 0 0 0 0 0 0 
0 0 0 0 0 0 0 0 0 
0 0 0 0 0 0 0 0 0 
0 0 0 0 0 0 0 0 0 
0 0 0 0 0 0 0 0 0 
0 0 0 0 0 0 0 0 0 
0 0 0 0 0 0 0 0 0 
0 0 0 0 0 0 0 0 0 
0 0 0 0 0 0 0 0 0 
0 0 0 0 0 0 0 0 0 
0 0 0 0 0 0 0 0 0 
0 0 0 0 0 0 0 0 0 
0 0 0 0 0 0 0 0 0 
0 0 0 0 0 0 0 0 0 
0 0 0 0 0 0 0 0 0 
0 0 0 0 0 0 0 0 0 
0 0 0 0 0 0 0 0 0 
0 0 0 0 0 0 0 0 0 
0 0 0 0 0 0 0 0 0 
0 0 0 0 0 0 0 0 0 
0 0 0 0 0 0 0 0 0 
0 0 0 0 0 0 0 0 0 
0 0 0 0 0 0 0 0 0 
0 0 0 0 0 0 0 0 0 
0 0 0 0 0 0 0 0 0 
0 0 0 0 0 0 0 0 0 
0 0 0 0 0 0 0 0 0 
0 0 0 0 0 0 0 0 0 
0 0 0 0 0 0 0 0 0 
0 0 0 0 0 0 0 0 0 
0 0 0 0 0 0 0 0 0 
0 0 0 0 0 0 0 0 0 
0 0 0 0 0 0 0 0 0 
0 0 0 0 0 0 0 0 0 
0 0 0 0 0 0 0 0 0 
0 0 0 0 0 0 0 0 0 
0 0 0 0 0 0 0 0 0 
0 0 0 0 0 0 0 0 0 
0 0 0 0 0 0 0 0 0 
0 0 0 0 0 0 0 0 0 
0 0 0 0 0 0 0 0 0 
0 0 0 0 0 0 0 0 0 
0 0 0 0 0 0 0 0 0 
0 0 0 0 0 0 0 0 0 
0 0 0 0 0 0 0 0 0 
0 0 0 0 0 0 0 0 0 
0 0 0 0 0 0 0 0 0 
0 0 0 0 0 0 0 0 0 
0 0 0 0 0 0 0 0 0 
0 0 0 0 0 0 0 0 0 
0 0 0 0 0 0 0 0 0 
0 0 0 0 0 0 0 0 0 
0 0 0 0 0 0 0 0 0 
0 0 0 0 0 0 0 0 0 
0 0 0 0 0 0 0 0 0 
0 0 0 0 0 0 0 0 0 
0 0 0 0 0 0 0 0 0 
0 0 0 0 0 0 0 0 0 
0 0 0 0 0 0 0 0 0 
0 0 0 0 0 0 0 0 0 
0 0 0 0 0 0 0 0 0 
0 0 0 0 0 0 0 0 0 
0 0 0 0 0 0 0 0 0 
0 0 0 0 0 0 0 0 0 
0 0 0 0 0 0 0 0 0 
0 0 0 0 0 0 0 0 0 
0 0 0 0 0 0 0 0 0 
0 0 0 0 0 0 0 0 0 
0 0 0 0 0 0 0 0 0 
0 0 0 0 0 0 0 0 0 
0 0 0 0 0 0 0 0 0 
0 0 0 0 0 0 0 0 0 
0 0 0 0 0 0 0 0 0 
0 0 0 0 0 0 0 0 0 
0 0 0 0 0 0 0 0 0 
0 0 0 0 0 0 0 0 0 
0 0 0 0 0 0 0 0 0 
0 0 0 0 0 0 0 0 0 
0 0 0 0 0 0 0 0 0 
0 0 0 0 0 0 0 0 0 
0 0 0 0 0 0 0 0 0 
0 0 0 0 0 0 0 0 0 
0 0 0 0 0 0 0 0 0 
0 0 0 0 0 0 0 0 0 
0 0 0 0 0 0 0 0 0 
0 0 0 0 0 0 0 0 0 
0 0 0 0 0 0 0 0 0 
0 0 0 0 0 0 0 0 0 
0 0 0 0 0 0 0 0 0 
0 0 0 0 0 0 0 0 0 
0 0 0 0 0 0 0 0 0 
0 0 0 0 0 0 0 0 0 
0 0 0 0 0 0 0 0 0 
0 0 0 0 0 0 0 0 0 
0 0 0 0 0 0 0 0 0 
0 0 0 0 0 0 0 0 0 
0 0 0 0 0 0 0 0 0 
0 0 0 0 0 0 0 0 0 
0 0 0 0 0 0 0 0 0 
0 0 0 0 0 0 0 0 0 
0 0 0 0 0 0 0 0 0 
0 0 0 0 0 0 0 0 0 
0 0 0 0 0 0 0 0 0 
0 0 0 0 0 0 0 0 0 
0 0 0 0 0 0 0 0 0 
0 0 0 0 0 0 0 0 0 
0 0 0 0 0 0 0 0 0 
0 0 0 0 0 0 0 0 0 
0 0 0 0 0 0 0 0 0 
0 0 0 0 0 0 0 0 0 
0 0 0 0 0 0 0 0 0 
0 0 0 0 0 0 0 0 0 
0 0 0 0 0 0 0 0 0 
0 0 0 0 0 0 0 0 0 
0 0 0 0 0 0 0 0 0 
0 0 0 0 0 0 0 0 0 
0 0 0 0 0 0 0 0 0 
0 0 0 0 0 0 0 0 0 
0 0 0 0 0 0 0 0 0 
0 0 0 0 0 0 0 0 0 
0 0 0 0 0 0 0 0 0 
0 0 0 0 0 0 0 0 0 
0 0 0 0 0 0 0 0 0 
0 0 0 0 0 0 0 0 0 
0 0 0 0 0 0 0 0 0 
0 0 0 0 0 0 0 0 0 
0 0 0 0 0 0 0 0 0 
0 0 0 0 0 0 0 0 0 
0 0 0 0 0 0 0 0 0 
0 0 0 0 0 0 0 0 0 
0 0 0 0 0 0 0 0 0 
0 0 0 0 0 0 0 0 0 
0 0 0 0 0 0 0 0 0 
0 0 0 0 0 0 0 0 0 
0 0 0 0 0 0 0 0 0 
0 0 0 0 0 0 0 0 0 
0 0 0 0 0 0 0 0 0 
0 0 0 0 0 0 0 0 0 
0 0 0 0 0 0 0 0 0 
0 0 0 0 0 0 0 0 0 
0 0 0 0 0 0 0 0 0 
0 0 0 0 0 0 0 0 0 
0 0 0 0 0 0 0 0 0 
0 0 0 0 0 0 0 0 0 
0 0 0 0 0 0 0 0 0 
0 0 0 0 0 0 0 0 0 
0 0 0 0 0 0 0 0 0 
0 0 0 0 0 0 0 0 0 
0 0 0 0 0 0 0 0 0 
0 0 0 0 0 0 0 0 0 
0 0 0 0 0 0 0 0 0 
0 0 0 0 0 0 0 0 0 
0 0 0 0 0 0 0 0 0 
0 0 0 0 0 0 0 0 0 
0 0 0 0 0 0 0 0 0 
0 0 0 0 0 0 0 0 0 
0 0 0 0 0 0 0 0 0 
0 0 0 0 0 0 0 0 0 
0 0 0 0 0 0 0 0 0 
0 0 0 0 0 0 0 0 0 
0 0 0 0 0 0 0 0 0 
0 0 0 0 0 0 0 0 0 
0 0 0 0 0 0 0 0 0 
0 0 0 0 0 0 0 0 0 
0 0 0 0 0 0 0 0 0 
0 0 0 0 0 0 0 0 0 
0 0 0 0 0 0 0 0 0 
0 0 0 0 0 0 0 0 0 
0 0 0 0 0 0 0 0 0 
0 0 0 0 0 0 0 0 0 
0 0 0 0 0 0 0 0 0 
0 0 0 0 0 0 0 0 0 
0 0 0 0 0 0 0 0 0 
0 0 0 0 0 0 0 0 0 
0 0 0 0 0 0 0 0 0 
0 0 0 0 0 0 0 0 0 
0 0 0 0 0 0 0 0 0 
0 0 0 0 0 0 0 0 0 
0 0 0 0 0 0 0 0 0 
0 0 0 0 0 0 0 0 0 
0 0 0 0 0 0 0 0 0 
0 0 0 0 0 0 0 0 0 
0 0 0 0 0 0 0 0 0 
0 0 0 0 0 0 0 0 0 
0 0 0 0 0 0 0 0 0 
0 0 0 0 0 0 0 0 0 
0 0 0 0 0 0 0 0 0 
0 0 0 0 0 0 0 0 0 
0 0 0 0 0 0 0 0 0 
0 0 0 0 0 0 0 0 0 
0 0 0 0 0 0 0 0 0 
0 0 0 0 0 0 0 0 0 
0 0 0 0 0 0 0 0 0 
0 0 0 0 0 0 0 0 0 
0 0 0 0 0 0 0 0 0 
0 0 0 0 0 0 0 0 0 
0 0 0 0 0 0 0 0 0 
0 0 0 0 0 0 0 0 0 
0 0 0 0 0 0 0 0 0 
0 0 0 0 0 0 0 0 0 
0 0 0 0 0 0 0 0 0 
0 0 0 0 0 0 0 0 0 
0 0 0 0 0 0 0 0 0 
0 0 0 0 0 0 0 0 0 
0 0 0 0 0 0 0 0 0 
0 0 0 0 0 0 0 0 0 
0 0 0 0 0 0 0 0 0 
0 0 0 0 0 0 0 0 0 
0 0 0 0 0 0 0 0 0 
0 0 0 0 0 0 0 0 0 
0 0 0 0 0 0 0 0 0 
0 0 0 0 0 0 0 0 0 
0 0 0 0 0 0 0 0 0 
0 0 0 0 0 0 0 0 0 
0 0 0 0 0 0 0 0 0 
0 0 0 0 0 0 0 0 0 
0 0 0 0 0 0 0 0 0 
0 0 0 0 0 0 0 0 0 
0 0 0 0 0 0 0 0 0 
0 0 0 0 0 0 0 0 0 
0 0 0 0 0 0 0 0 0 
0 0 0 0 0 0 0 0 0 
0 0 0 0 0 0 0 0 0 
0 0 0 0 0 0 0 0 0 
0 0 0 0 0 0 0 0 0 
0 0 0 0 0 0 0 0 0 
0 0 0 0 0 0 0 0 0 
0 0 0 0 0 0 0 0 0 
0 0 0 0 0 0 0 0 0 
0 0 0 0 0 0 0 0 0 
0 0 0 0 0 0 0 0 0 
0 0 0 0 0 0 0 0 0 
0 0 0 0 0 0 0 0 0 
0 0 0 0 0 0 0 0 0 
0 0 0 0 0 0 0 0 0 
0 0 0 0 0 0 0 0 0 
0 0 0 0 0 0 0 0 0 
0 0 0 0 0 0 0 0 0 
0 0 0 0 0 0 0 0 0 
0 0 0 0 0 0 0 
il1 1 2500 double
4.5432354933e-23 8.6230412308e-21 1.4663874294e-18 2.1898828506e-16 2.7681089232e-14 2.7934087335e-12 1.9716292488e-10 7.4237629377e-09 2.2650670228e-10 
3.5779307034e-12 2.2413059256e-11 3.1721118245e-13 3.2524030178e-15 1.1720736415e-13 1.1076768842e-11 1.6495367572e-11 3.0797042694e-09 3.4746247479e-07 
3.1712663606e-09 5.1868838113e-09 9.16338741e-11 8.9219202772e-13 6.319919072e-15 4.4482749171e-17 1.7644661909e-15 3.242425317e-13 4.5143080246e-11 
3.6174885309e-09 4.4850102798e-11 7.8670837206e-13 5.88500082e-11 4.1564227615e-09 1.3483916206e-09 3.6372216528e-07 1.2895541301e-09 3.4290608547e-12 
9.7865280401e-15 1.0573042686e-13 6.124495442e-14 1.3450864554e-11 1.8983434824e-09 1.3448810642e-11 6.0499782267e-14 6.724923217e-14 9.5003300067e-16 
7.5648677955e-18 4.4434245807e-20 2.12063709e-22 3.0652269634e-23 8.5652644018e-22 1.2406838791e-21 2.4652210472e-19 4.3987423494e-17 6.9041176957e-15 
9.179299031e-13 9.7255717368e-11 7.3280777002e-09 2.9588733241e-07 1.1451732007e-08 2.0018470215e-10 3.6000222803e-09 4.4566492857e-11 4.3184878416e-13 
2.1941106917e-11 2.4796671383e-09 2.2142798012e-11 3.2965366548e-11 3.1088818186e-09 5.1582120797e-09 3.2182495602e-07 5.1251660693e-09 4.5348225175e-11 
2.9425791773e-13 2.0600330439e-15 1.1540638237e-13 2.3217094913e-11 3.6405651826e-09 3.3861692827e-07 3.5953804378e-09 5.1459819045e-11 4.1239132109e-09 
3.3291973978e-07 4.1306420506e-09 1.3153370615e-09 6.9888084035e-12 2.7403255649e-14 3.1533873819e-13 2.2287467011e-11 7.016335863e-12 1.89280569e-09 
3.563238522e-07 1.8916501698e-09 6.8956251299e-12 1.61977428e-11 2.0043915258e-13 1.4185181358e-15 7.530213891e-18 3.3268845577e-20 5.9899205654e-21 
1.7724139864e-19 7.5427831599e-23 1.4559774648e-20 2.5222107929e-18 3.845343498e-16 4.9794556363e-14 5.1828558806e-12 3.9492450976e-10 1.8367321886e-08 
3.3330744031e-07 7.7309119106e-09 3.3993461557e-07 3.6022775873e-09 3.3262996524e-11 2.4797712772e-09 3.5031624179e-07 2.4796678044e-09 1.1196104807e-11 
1.8647455108e-11 1.5549656007e-10 5.1490611774e-09 9.1020330162e-11 9.2410703655e-13 6.7878124488e-15 7.7124645307e-15 1.0846412744e-12 1.0717673971e-10 
5.1698894055e-09 3.6858998076e-09 4.542366136e-11 1.0846734752e-12 5.8848176332e-11 4.1529939487e-09 5.8864406405e-11 3.8819338369e-12 2.8614009626e-14 
3.1533263956e-13 4.4532065535e-11 3.5952207877e-09 4.6900192063e-11 6.6608879523e-10 1.8939598778e-09 1.359707312e-11 3.2481708295e-11 3.0473441548e-09 
3.2354102036e-11 2.0038674496e-13 9.4561455918e-16 3.7825914757e-18 1.0588423659e-18 3.332638227e-17 8.6202509099e-22 1.7852373539e-19 3.3296686486e-17 
5.481286574e-15 7.6758933411e-13 8.6125280518e-11 6.9213212939e-09 3.0093198689e-07 1.1048429727e-08 1.4847754137e-09 3.679270435e-07 1.3406719068e-09 
3.8958957588e-12 2.1949345119e-11 2.4796662501e-09 2.1951657506e-11 1.5979099554e-12 1.289589685e-10 6.1012195296e-09 3.7983163281e-09 4.7474666559e-11 
1.1311112637e-11 1.2083213661e-13 4.9537012946e-13 7.7702122514e-11 8.1725026746e-09 3.2185701571e-07 5.1476343188e-09 4.6549521182e-11 4.6113744767e-11 
5.9724475365e-11 4.1530068273e-09 5.8843520334e-11 4.7751364494e-13 1.0792416087e-13 2.2267715449e-11 3.5952165689e-09 3.3861709881e-07 4.2476067108e-09 
3.6868601683e-07 6.5925237491e-10 1.7598740173e-11 3.063817644e-09 3.4441444541e-07 3.0473445989e-09 1.6178003381e-11 6.6801937788e-14 2.3903264478e-16 
1.6473334986e-16 5.5291896753e-15 4.1584917982e-21 7.3677199465e-19 1.1104715759e-16 1.3468451513e-14 1.1784212928e-12 5.6768065942e-11 1.7253661e-10 
6.9195111863e-09 2.072876315e-10 1.9015127251e-09 3.5762886341e-07 1.8987735828e-09 6.722327122e-12 1.3631963939e-13 1.0973316873e-11 6.1198702356e-13 
6.4402150279e-11 6.0780718236e-09 3.1476821505e-07 3.4879548139e-07 3.739828891e-09 2.5028918937e-09 2.2117144921e-11 1.630115834e-11 3.048226116e-09 
3.4450494013e-07 8.1725080037e-09 1.0784987486e-10 9.1789562062e-11 5.1543538326e-09 4.2145056334e-09 3.329210756e-07 4.1243208848e-09 2.9202949087e-11 
1.568097323e-13 3.158997044e-13 4.4532173088e-11 3.5952447686e-09 5.0245876904e-11 6.5272454108e-10 2.5411209595e-12 3.3443452868e-11 3.1250493304e-09 
3.080797395e-09 3.2568100994e-11 2.0349210327e-13 9.680851786e-16 3.3005414354e-16 2.1784781078e-14 7.7977918176e-13 2.9756100967e-19 5.5598514739e-17 
8.9242510408e-15 1.1569581014e-12 1.0896981234e-10 5.598938202e-09 1.1124372257e-10 8.6862218807e-11 2.4974070121e-12 1.3450331994e-11 1.8951586966e-09 
1.3415345224e-11 5.9360068944e-14 7.1319755936e-16 4.5039872439e-14 1.1678633321e-12 1.6414946659e-12 1.5806853049e-10 1.0223712543e-08 3.3665415344e-07 
6.6494796336e-09 3.5034574353e-07 2.4798236797e-09 1.1171346834e-11 3.2402299593e-11 3.0482272262e-09 7.799636631e-11 4.6431414269e-11 5.1251700661e-09 
3.2182484233e-07 5.1854009975e-09 4.2453374149e-09 1.2481353451e-10 1.9696828803e-12 2.1311845314e-14 2.758388839e-15 3.3931874237e-13 2.9077441843e-11 
1.2830633223e-09 8.0417842524e-12 1.7090936305e-11 3.1380344989e-09 3.4954024386e-07 3.1911040477e-09 1.7919972797e-11 1.2352844442e-12 6.7789067443e-15 
3.2536432858e-14 2.3063879365e-12 8.7989351916e-11 1.2346715371e-17 2.4282571125e-15 4.0548947121e-13 5.4493836527e-11 5.5989066716e-09 3.1642218801e-07 
5.5989275438e-09 5.5251938441e-11 4.0820653606e-13 6.1868397775e-14 6.7034607032e-12 5.9313753182e-14 3.2938826977e-16 6.1320717282e-15 2.3090841305e-12 
6.5239219582e-10 2.3300354701e-12 1.9522055413e-12 1.2298465024e-10 4.1476657664e-09 8.0648307477e-11 2.480133654e-09 2.1942192854e-11 1.1790403181e-13 
2.0095069272e-13 1.6184277876e-11 5.0088823063e-13 8.9036460496e-13 9.0700093269e-11 5.1270232504e-09 2.420088574e-10 6.6535541521e-09 6.2051919159e-09 
1.3041721869e-10 1.4951337694e-12 2.0398637071e-14 3.4077460905e-12 1.2828468288e-09 3.6243898194e-07 1.2841934183e-09 4.8963711557e-11 5.1581716676e-09 
3.2494548918e-07 9.7913064323e-09 1.216494544e-10 6.5333227717e-10 2.336317988e-12 2.301923192e-12 1.7368147198e-10 7.0961978516e-09 3.1605610353e-16 
5.9290300534e-14 6.7038922157e-12 1.2189469269e-12 1.0912645093e-10 5.5990136971e-09 1.0897134584e-10 1.1623378041e-12 9.0373002932e-15 2.6743953579e-16 
1.9765713724e-14 2.1348044008e-16 2.0446255146e-15 1.1545668935e-12 6.5240812752e-10 3.6866708797e-07 6.5240829406e-10 1.1709059286e-12 9.6160839708e-13 
2.9308437621e-11 5.8315429308e-13 1.097432388e-11 1.1649889224e-13 7.8399029669e-16 3.168077288e-15 6.6893288597e-14 2.6036767889e-15 1.3524585233e-14 
1.5026038139e-12 1.2054832133e-10 6.5600973542e-09 3.1195540373e-07 3.1760953334e-07 6.1300462484e-09 6.491059773e-11 5.0144263741e-13 2.4486275095e-13 
6.8205207107e-12 1.2850506215e-09 6.592010271e-10 3.4346696494e-12 1.2779163838e-10 9.7752694828e-09 3.2743713518e-07 5.2872008993e-09 3.6870059716e-07 
6.5336558386e-10 8.7668705628e-11 7.0172503364e-09 3.0959949981e-07 5.9444948421e-14 1.3389595856e-11 1.8916526123e-09 1.3870268649e-11 3.0723385641e-11 
7.7226405826e-11 1.4762818789e-12 1.5876019846e-14 1.2587833392e-16 1.4690425758e-18 5.2462884795e-17 8.7046904196e-19 8.5546118978e-17 3.022953185e-14 
9.1186129828e-12 1.9351256153e-09 9.1186138501e-12 3.0337325263e-14 5.8888275827e-15 1.5547446956e-13 3.2314633045e-15 3.8854356744e-14 5.9099738661e-16 
8.8752561141e-15 3.857469628e-13 9.1084375082e-15 1.2216455766e-16 1.8938269684e-16 2.2699852794e-14 2.1567905881e-12 1.5086673577e-10 6.6234822071e-09 
6.2047207372e-09 1.3041312474e-10 1.5014428503e-12 6.6520774349e-13 3.6901242478e-11 1.8314395139e-12 6.5579530695e-10 3.6866370579e-07 6.5239941227e-10 
3.006075857e-12 1.6373846723e-10 8.2297217929e-09 1.2063987309e-10 6.533523722e-10 2.3563304086e-12 9.0405001194e-12 2.07537032e-09 3.6530494185e-07 
6.7147533193e-12 1.8916512801e-09 3.5632427853e-07 1.9503454407e-09 4.1753329683e-09 3.6540015458e-09 4.5005891375e-11 3.1806488324e-13 1.6877288175e-15 
7.4687353463e-18 1.9670811208e-19 1.7773126896e-17 8.0339956964e-15 3.4049536194e-12 1.2827477969e-09 3.6244011881e-07 1.2827477969e-09 3.4049542699e-12 
8.0635817102e-15 7.0535281666e-16 1.5848481097e-17 2.3027260357e-16 1.3308700252e-14 1.1569548488e-12 5.4493614482e-11 1.1569558245e-12 1.3314243235e-14 