# vtk DataFile Version 5.1
vtk output
ASCII
DATASET STRUCTURED_POINTS
DIMENSIONS 50 50 1
SPACING 1 1 1
ORIGIN 0 0 0
POINT_DATA 2500
FIELD FieldData 10
CellType 1 2500 char
0 0 0 0 0 0 0 0 0 
0 0 0 0 0 0 4 0 0 
0 3 0 0 0 0 0 3 3 
0 0 0 0 0 0 0 0 0 
0 0 0 0 0 0 0 0 0 
0 0 0 0 0 0 0 0 0 
0 0 0 0 0 0 3 0 0 
0 0 0 0 0 0 0 0 2 
0 0 0 0 0 0 0 0 4 
0 0 0 0 0 0 0 0 0 
0 0 0 0 0 0 7 0 0 
0 0 0 0 0 0 0 0 0 
0 0 0 3 0 0 0 0 0 
0 0 0 0 0 0 0 0 0 
0 0 0 0 0 0 0 0 0 
0 0 0 0 0 0 0 0 3 
2 0 0 0 0 0 0 0 0 
0 0 0 0 0 0 0 0 0 
0 0 0 0 0 0 0 4 0 
0 0 0 0 0 0 0 0 0 
0 0 0 0 0 0 0 0 0 
0 0 0 0 0 0 0 0 0 
0 0 0 0 0 0 0 0 0 
5 2 0 0 0 0 0 0 0 
2 0 0 5 0 0 0 0 0 
0 0 0 0 0 0 0 0 0 
0 0 0 0 0 0 0 0 0 
0 0 0 0 2 0 0 0 0 
0 0 0 0 0 0 0 0 0 
3 0 0 0 0 0 0 0 0 
0 0 0 0 0 0 0 0 0 
0 0 7 3 0 0 10 0 0 
0 0 0 0 0 0 0 0 0 
7 0 0 0 0 0 0 0 0 
0 0 0 0 0 0 0 0 0 
0 0 0 3 9 0 0 0 0 
0 0 0 0 0 0 0 7 0 
0 0 0 0 0 0 0 4 0 
0 0 0 0 0 0 0 0 0 
0 0 0 0 0 0 0 0 0 
0 0 0 0 0 0 0 0 0 
0 0 0 1 0 0 0 0 0 
0 0 0 0 0 0 0 0 0 
0 0 0 0 0 0 0 0 0 
0 0 0 0 5 0 0 0 0 
0 0 0 1 0 0 0 0 0 
0 0 0 0 0 0 0 0 1 
0 0 4 0 0 0 1 0 0 
0 5 0 1 0 0 0 0 0 
0 0 0 0 0 0 0 0 0 
0 0 0 0 0 0 0 0 0 
0 0 0 1 0 0 9 0 0 
0 0 0 0 0 0 0 0 0 
0 0 0 0 0 0 0 0 0 
0 0 0 1 0 0 0 0 0 
0 0 0 0 0 0 0 0 0 
0 0 0 0 0 0 0 1 0 
0 0 0 0 0 0 0 0 0 
0 0 0 0 0 0 0 0 1 
1 0 0 0 2 0 10 0 0 
0 0 0 2 0 0 0 0 0 
0 0 0 0 3 0 0 0 0 
0 0 0 0 0 0 0 1 0 
0 1 0 0 0 0 0 0 0 
0 0 0 0 0 0 0 0 0 
0 0 0 0 0 0 0 0 0 
0 0 0 0 4 0 0 0 0 
0 0 0 0 0 0 0 0 0 
0 0 0 0 0 0 0 0 0 
0 0 0 0 0 0 0 7 1 
0 0 0 0 0 0 0 0 0 
1 0 1 0 0 0 0 0 4 
4 0 0 0 0 0 0 0 0 
5 0 0 0 1 0 0 0 0 
1 0 0 0 0 2 0 0 0 
0 0 0 0 0 0 0 0 1 
0 3 0 0 0 0 0 0 0 
0 0 0 0 0 0 0 0 0 
0 0 0 0 0 0 0 0 3 
0 0 0 0 1 0 1 0 0 
0 0 1 0 0 0 0 7 0 
0 0 0 0 0 0 0 0 0 
4 0 0 0 0 0 0 0 0 
0 0 0 0 0 0 0 0 0 
0 0 0 0 0 1 0 3 0 
0 0 0 0 1 0 0 0 0 
0 0 0 0 0 0 0 0 0 
0 0 0 0 0 0 0 0 0 
3 0 0 0 0 0 0 0 0 
0 0 0 0 0 7 0 0 0 
1 0 0 0 0 0 0 0 0 
0 0 0 0 0 0 0 0 0 
0 0 0 0 0 0 0 1 1 
0 0 0 0 0 0 0 0 5 
0 0 0 0 0 0 0 0 0 
0 0 0 0 0 0 0 0 0 
0 0 0 0 0 1 0 0 0 
0 0 0 0 0 0 0 0 0 
0 0 0 0 0 0 0 0 0 
0 0 0 0 0 0 0 0 0 
0 0 0 0 0 0 0 0 1 
0 0 0 0 0 0 0 0 0 
0 0 0 0 0 1 0 2 0 
0 0 0 0 0 0 0 1 0 
0 0 0 0 0 0 0 0 0 
0 0 0 0 0 0 0 0 0 
0 0 0 0 0 0 0 0 3 
0 0 0 0 0 0 1 0 0 
0 0 0 1 0 0 0 0 0 
1 0 0 0 0 0 0 0 0 
0 0 0 0 0 0 0 0 0 
0 0 0 0 0 0 0 2 0 
0 0 0 0 0 0 0 0 0 
0 0 1 1 0 0 0 0 0 
0 1 0 0 0 0 3 0 0 
0 0 0 7 0 0 0 0 0 
0 0 0 0 0 3 0 0 0 
0 0 0 0 0 0 0 0 0 
0 0 0 0 1 3 5 0 0 
0 0 0 0 0 0 2 0 0 
0 0 0 0 4 0 0 0 0 
0 0 0 0 2 0 0 0 0 
0 0 0 0 0 0 0 0 0 
0 0 0 0 0 0 0 0 0 
0 0 0 0 0 0 0 0 0 
0 1 0 0 0 0 0 0 0 
0 0 1 0 0 0 0 0 0 
0 0 0 0 0 0 0 0 0 
0 0 0 0 0 0 0 0 0 
0 0 0 0 0 0 0 0 0 
0 0 0 0 0 0 0 1 0 
0 0 0 5 0 0 0 1 5 
0 0 1 0 0 0 0 0 0 
0 0 0 0 0 0 0 0 0 
0 0 0 0 0 0 0 1 0 
0 4 0 1 0 0 0 0 0 
0 1 1 0 0 0 0 0 0 
0 0 0 0 0 0 0 0 0 
0 0 0 0 0 0 0 0 0 
3 0 0 0 0 0 0 0 0 
0 0 0 0 0 0 0 0 0 
0 7 0 0 0 0 0 0 0 
0 0 0 0 0 0 0 1 0 
0 0 1 0 0 0 0 0 0 
0 0 0 0 0 0 0 0 0 
0 0 0 0 0 0 0 0 0 
0 0 0 0 1 0 0 0 0 
1 0 0 0 0 0 0 0 0 
0 0 0 0 0 0 1 1 0 
0 0 0 0 0 3 0 0 0 
0 0 0 0 0 0 0 1 0 
0 0 0 0 1 0 0 0 0 
0 0 0 0 0 0 1 0 0 
1 0 0 0 0 0 0 0 0 
1 0 0 0 0 0 0 0 0 
0 0 0 0 0 0 0 0 0 
0 0 0 0 0 0 0 0 0 
0 0 0 0 0 0 0 0 0 
0 0 0 0 0 0 0 0 0 
0 0 0 0 0 0 0 0 1 
0 0 0 0 0 0 0 0 0 
0 0 2 0 0 0 0 0 0 
0 0 0 7 7 0 0 0 0 
0 0 0 0 0 0 0 0 0 
0 0 1 0 0 0 0 1 0 
0 0 0 1 0 0 0 1 0 
0 0 0 0 0 0 0 0 0 
0 0 0 0 0 0 0 0 0 
0 0 0 0 0 0 0 0 0 
0 0 0 0 0 7 0 0 0 
0 0 0 0 0 0 0 0 0 
0 0 0 0 0 0 3 0 0 
0 0 0 0 0 0 0 0 0 
0 0 0 0 0 0 0 0 1 
0 0 0 0 0 1 0 0 0 
0 0 0 1 0 0 0 0 0 
0 0 0 0 0 0 0 0 0 
0 0 0 0 0 0 0 0 0 
0 0 0 0 0 0 0 0 0 
1 0 0 0 0 0 1 1 0 
0 0 0 1 0 0 0 0 0 
0 0 0 0 5 0 0 0 0 
0 0 0 0 0 0 0 0 0 
0 0 0 0 7 2 0 0 0 
2 0 0 0 7 1 0 0 0 
0 0 0 0 0 0 1 0 0 
0 0 0 0 0 0 1 0 0 
0 0 0 0 0 0 0 0 1 
7 0 0 0 0 0 0 0 0 
0 0 0 0 0 0 0 0 0 
0 0 1 0 0 0 0 0 0 
0 1 0 0 1 0 0 0 0 
0 0 0 0 0 0 0 0 0 
0 2 0 0 0 0 0 0 0 
0 0 0 0 0 0 0 0 0 
0 0 0 0 0 0 0 0 2 
3 0 0 0 1 0 0 0 0 
0 0 0 0 0 1 0 0 0 
0 0 5 10 0 0 0 0 1 
1 0 0 0 0 0 0 0 0 
0 0 0 9 0 0 0 0 0 
0 0 0 0 0 0 0 0 0 
0 1 0 0 0 0 0 0 0 
0 0 0 0 0 0 0 0 0 
0 0 0 0 0 0 0 0 0 
0 0 0 0 0 0 0 0 9 
7 0 0 0 0 0 0 1 0 
0 0 0 2 0 1 2 1 0 
0 1 0 0 0 0 0 0 0 
0 0 1 0 0 0 0 10 0 
0 1 0 0 10 0 0 0 0 
3 0 0 0 0 0 0 0 0 
0 0 0 0 0 0 0 0 0 
0 0 0 0 0 0 0 0 0 
0 0 0 0 0 0 1 3 0 
0 0 0 0 0 0 0 0 0 
0 0 0 0 0 0 0 0 0 
0 0 0 0 0 0 0 0 0 
1 0 0 0 0 0 0 0 0 
0 0 0 0 0 0 5 0 0 
0 0 0 0 0 0 8 0 0 
0 1 0 0 0 0 0 3 0 
0 0 0 0 0 0 0 0 3 
0 0 0 1 0 0 0 0 0 
0 0 0 0 0 0 0 0 3 
0 0 1 0 0 7 0 0 1 
0 0 8 0 0 0 0 0 0 
0 0 0 0 0 0 0 0 0 
0 0 0 0 3 0 0 0 0 
0 0 0 0 0 0 0 0 0 
3 0 0 0 0 0 0 0 0 
0 0 0 0 0 0 0 0 0 
0 0 0 0 1 7 0 0 0 
0 0 0 0 0 0 0 0 0 
0 0 0 0 0 0 0 0 0 
0 0 0 0 0 0 0 0 0 
0 0 7 7 0 0 0 0 0 
0 0 0 0 0 0 0 1 0 
0 0 0 0 0 0 4 0 0 
7 0 0 0 0 0 0 0 0 
0 0 0 0 0 0 0 2 0 
0 0 0 0 7 0 0 0 0 
0 0 0 0 0 0 0 0 0 
0 0 0 0 0 0 0 0 0 
0 0 0 0 0 3 0 0 0 
0 0 0 0 0 0 0 0 0 
0 0 0 0 0 0 0 0 0 
0 0 0 0 0 0 0 0 0 
0 8 0 0 0 0 0 0 0 
0 3 0 0 0 0 0 0 0 
0 0 0 0 0 0 0 0 0 
0 0 0 0 0 0 3 0 0 
0 0 0 0 0 0 0 0 0 
0 0 0 0 0 0 3 0 0 
0 0 0 0 0 2 3 0 0 
3 0 0 0 2 0 0 0 0 
0 0 0 0 7 0 0 0 0 
0 0 0 0 0 0 0 0 0 
0 0 0 0 0 0 0 0 0 
0 0 0 0 0 0 0 0 0 
0 0 0 0 0 0 0 0 0 
0 0 0 0 0 0 0 0 0 
0 0 0 0 0 7 7 0 0 
0 2 3 0 0 0 0 0 0 
0 0 0 0 0 0 0 0 0 
0 0 0 0 0 0 0 0 0 
0 0 0 0 0 0 0 0 0 
0 0 0 0 0 0 0 0 0 
0 0 0 0 0 0 0 0 0 
0 0 0 0 0 0 0 3 0 
0 8 0 3 0 0 0 0 0 
0 0 0 7 0 0 0 0 0 
0 0 0 0 0 0 0 0 0 
7 0 0 0 0 0 0 0 0 
0 0 0 0 0 0 0 0 0 
0 0 0 0 0 0 0 0 0 
0 0 0 0 0 0 0 0 7 
0 0 0 0 0 0 0 
CellId 1 2500 long
0 0 0 0 0 0 0 0 0 
0 0 0 0 0 0 213 0 0 
0 320 0 0 0 0 0 332 266 
0 0 0 0 0 0 0 0 0 
0 0 0 0 0 0 0 0 0 
0 0 0 0 0 0 0 0 0 
0 0 0 0 0 0 292 0 0 
0 0 0 0 0 0 0 0 199 
0 0 0 0 0 0 0 0 325 
0 0 0 0 0 0 0 0 0 
0 0 0 0 0 0 257 0 0 
0 0 0 0 0 0 0 0 0 
0 0 0 293 0 0 0 0 0 
0 0 0 0 0 0 0 0 0 
0 0 0 0 0 0 0 0 0 
0 0 0 0 0 0 0 0 230 
151 0 0 0 0 0 0 0 0 
0 0 0 0 0 0 0 0 0 
0 0 0 0 0 0 0 217 0 
0 0 0 0 0 0 0 0 0 
0 0 0 0 0 0 0 0 0 
0 0 0 0 0 0 0 0 0 
0 0 0 0 0 0 0 0 0 
147 126 0 0 0 0 0 0 0 
138 0 0 160 0 0 0 0 0 
0 0 0 0 0 0 0 0 0 
0 0 0 0 0 0 0 0 0 
0 0 0 0 205 0 0 0 0 
0 0 0 0 0 0 0 0 0 
290 0 0 0 0 0 0 0 0 
0 0 0 0 0 0 0 0 0 
0 0 235 336 0 0 222 0 0 
0 0 0 0 0 0 0 0 0 
311 0 0 0 0 0 0 0 0 
0 0 0 0 0 0 0 0 0 
0 0 0 261 312 0 0 0 0 
0 0 0 0 0 0 0 321 0 
0 0 0 0 0 0 0 214 0 
0 0 0 0 0 0 0 0 0 
0 0 0 0 0 0 0 0 0 
0 0 0 0 0 0 0 0 0 
0 0 0 77 0 0 0 0 0 
0 0 0 0 0 0 0 0 0 
0 0 0 0 0 0 0 0 0 
0 0 0 0 133 0 0 0 0 
0 0 0 63 0 0 0 0 0 
0 0 0 0 0 0 0 0 78 
0 0 215 0 0 0 43 0 0 
0 169 0 11 0 0 0 0 0 
0 0 0 0 0 0 0 0 0 
0 0 0 0 0 0 0 0 0 
0 0 0 62 0 0 317 0 0 
0 0 0 0 0 0 0 0 0 
0 0 0 0 0 0 0 0 0 
0 0 0 71 0 0 0 0 0 
0 0 0 0 0 0 0 0 0 
0 0 0 0 0 0 0 38 0 
0 0 0 0 0 0 0 0 0 
0 0 0 0 0 0 0 0 67 
100 0 0 0 184 0 220 0 0 
0 0 0 200 0 0 0 0 0 
0 0 0 0 328 0 0 0 0 
0 0 0 0 0 0 0 96 0 
0 25 0 0 0 0 0 0 0 
0 0 0 0 0 0 0 0 0 
0 0 0 0 0 0 0 0 0 
0 0 0 0 216 0 0 0 0 
0 0 0 0 0 0 0 0 0 
0 0 0 0 0 0 0 0 0 
0 0 0 0 0 0 0 274 68 
0 0 0 0 0 0 0 0 0 
31 0 7 0 0 0 0 0 216 
216 0 0 0 0 0 0 0 0 
175 0 0 0 69 0 0 0 0 
22 0 0 0 0 196 0 0 0 
0 0 0 0 0 0 0 0 33 
0 281 0 0 0 0 0 0 0 
0 0 0 0 0 0 0 0 0 
0 0 0 0 0 0 0 0 282 
0 0 0 0 8 0 61 0 0 
0 0 60 0 0 0 0 238 0 
0 0 0 0 0 0 0 0 0 
212 0 0 0 0 0 0 0 0 
0 0 0 0 0 0 0 0 0 
0 0 0 0 0 23 0 306 0 
0 0 0 0 85 0 0 0 0 
0 0 0 0 0 0 0 0 0 
0 0 0 0 0 0 0 0 0 
301 0 0 0 0 0 0 0 0 
0 0 0 0 0 330 0 0 0 
5 0 0 0 0 0 0 0 0 
0 0 0 0 0 0 0 0 0 
0 0 0 0 0 0 0 86 53 
0 0 0 0 0 0 0 0 208 
0 0 0 0 0 0 0 0 0 
0 0 0 0 0 0 0 0 0 
0 0 0 0 0 72 0 0 0 
0 0 0 0 0 0 0 0 0 
0 0 0 0 0 0 0 0 0 
0 0 0 0 0 0 0 0 0 
0 0 0 0 0 0 0 0 59 
0 0 0 0 0 0 0 0 0 
0 0 0 0 0 97 0 156 0 
0 0 0 0 0 0 0 51 0 
0 0 0 0 0 0 0 0 0 
0 0 0 0 0 0 0 0 0 
0 0 0 0 0 0 0 0 288 
0 0 0 0 0 0 54 0 0 
0 0 0 70 0 0 0 0 0 
3 0 0 0 0 0 0 0 0 
0 0 0 0 0 0 0 0 0 
0 0 0 0 0 0 0 203 0 
0 0 0 0 0 0 0 0 0 
0 0 42 57 0 0 0 0 0 
0 76 0 0 0 0 310 0 0 
0 0 0 315 0 0 0 0 0 
0 0 0 0 0 331 0 0 0 
0 0 0 0 0 0 0 0 0 
0 0 0 0 66 298 154 0 0 
0 0 0 0 0 0 186 0 0 
0 0 0 0 211 0 0 0 0 
0 0 0 0 143 0 0 0 0 
0 0 0 0 0 0 0 0 0 
0 0 0 0 0 0 0 0 0 
0 0 0 0 0 0 0 0 0 
0 84 0 0 0 0 0 0 0 
0 0 40 0 0 0 0 0 0 
0 0 0 0 0 0 0 0 0 
0 0 0 0 0 0 0 0 0 
0 0 0 0 0 0 0 0 0 
0 0 0 0 0 0 0 34 0 
0 0 0 110 0 0 0 88 209 
0 0 82 0 0 0 0 0 0 
0 0 0 0 0 0 0 0 0 
0 0 0 0 0 0 0 44 0 
0 218 0 29 0 0 0 0 0 
0 2 91 0 0 0 0 0 0 
0 0 0 0 0 0 0 0 0 
0 0 0 0 0 0 0 0 0 
280 0 0 0 0 0 0 0 0 
0 0 0 0 0 0 0 0 0 
0 307 0 0 0 0 0 0 0 
0 0 0 0 0 0 0 27 0 
0 0 41 0 0 0 0 0 0 
0 0 0 0 0 0 0 0 0 
0 0 0 0 0 0 0 0 0 
0 0 0 0 98 0 0 0 0 
10 0 0 0 0 0 0 0 0 
0 0 0 0 0 0 4 58 0 
0 0 0 0 0 271 0 0 0 
0 0 0 0 0 0 0 73 0 
0 0 0 0 75 0 0 0 0 
0 0 0 0 0 0 13 0 0 
55 0 0 0 0 0 0 0 0 
32 0 0 0 0 0 0 0 0 
0 0 0 0 0 0 0 0 0 
0 0 0 0 0 0 0 0 0 
0 0 0 0 0 0 0 0 0 
0 0 0 0 0 0 0 0 0 
0 0 0 0 0 0 0 0 49 
0 0 0 0 0 0 0 0 0 
0 0 198 0 0 0 0 0 0 
0 0 0 295 295 0 0 0 0 
0 0 0 0 0 0 0 0 0 
0 0 47 0 0 0 0 89 0 
0 0 0 37 0 0 0 30 0 
0 0 0 0 0 0 0 0 0 
0 0 0 0 0 0 0 0 0 
0 0 0 0 0 0 0 0 0 
0 0 0 0 0 299 0 0 0 
0 0 0 0 0 0 0 0 0 
0 0 0 0 0 0 316 0 0 
0 0 0 0 0 0 0 0 0 
0 0 0 0 0 0 0 0 95 
0 0 0 0 0 90 0 0 0 
0 0 0 48 0 0 0 0 0 
0 0 0 0 0 0 0 0 0 
0 0 0 0 0 0 0 0 0 
0 0 0 0 0 0 0 0 0 
83 0 0 0 0 0 52 87 0 
0 0 0 14 0 0 0 0 0 
0 0 0 0 166 0 0 0 0 
0 0 0 0 0 0 0 0 0 
0 0 0 0 243 197 0 0 0 
202 0 0 0 314 9 0 0 0 
0 0 0 0 0 0 21 0 0 
0 0 0 0 0 0 99 0 0 
0 0 0 0 0 0 0 0 64 
247 0 0 0 0 0 0 0 0 
0 0 0 0 0 0 0 0 0 
0 0 26 0 0 0 0 0 0 
0 80 0 0 45 0 0 0 0 
0 0 0 0 0 0 0 0 0 
0 125 0 0 0 0 0 0 0 
0 0 0 0 0 0 0 0 0 
0 0 0 0 0 0 0 0 195 
309 0 0 0 1 0 0 0 0 
0 0 0 0 0 94 0 0 0 
0 0 136 223 0 0 0 0 93 
35 0 0 0 0 0 0 0 0 
0 0 0 291 0 0 0 0 0 
0 0 0 0 0 0 0 0 0 
0 15 0 0 0 0 0 0 0 
0 0 0 0 0 0 0 0 0 
0 0 0 0 0 0 0 0 0 
0 0 0 0 0 0 0 0 291 
323 0 0 0 0 0 0 39 0 
0 0 0 179 0 19 139 46 0 
0 36 0 0 0 0 0 0 0 
0 0 50 0 0 0 0 221 0 
0 17 0 0 326 0 0 0 0 
329 0 0 0 0 0 0 0 0 
0 0 0 0 0 0 0 0 0 
0 0 0 0 0 0 0 0 0 
0 0 0 0 0 0 18 318 0 
0 0 0 0 0 0 0 0 0 
0 0 0 0 0 0 0 0 0 
0 0 0 0 0 0 0 0 0 
20 0 0 0 0 0 0 0 0 
0 0 0 0 0 0 140 0 0 
0 0 0 0 0 0 229 0 0 
0 24 0 0 0 0 0 285 0 
0 0 0 0 0 0 0 0 263 
0 0 0 74 0 0 0 0 0 
0 0 0 0 0 0 0 0 267 
0 0 6 0 0 327 0 0 56 
0 0 229 0 0 0 0 0 0 
0 0 0 0 0 0 0 0 0 
0 0 0 0 287 0 0 0 0 
0 0 0 0 0 0 0 0 0 
233 0 0 0 0 0 0 0 0 
0 0 0 0 0 0 0 0 0 
0 0 0 0 16 279 0 0 0 
0 0 0 0 0 0 0 0 0 
0 0 0 0 0 0 0 0 0 
0 0 0 0 0 0 0 0 0 
0 0 264 264 0 0 0 0 0 
0 0 0 0 0 0 0 81 0 
0 0 0 0 0 0 219 0 0 
246 0 0 0 0 0 0 0 0 
0 0 0 0 0 0 0 121 0 
0 0 0 0 303 0 0 0 0 
0 0 0 0 0 0 0 0 0 
0 0 0 0 0 0 0 0 0 
0 0 0 0 0 302 0 0 0 
0 0 0 0 0 0 0 0 0 
0 0 0 0 0 0 0 0 0 
0 0 0 0 0 0 0 0 0 
0 260 0 0 0 0 0 0 0 
0 270 0 0 0 0 0 0 0 
0 0 0 0 0 0 0 0 0 
0 0 0 0 0 0 283 0 0 
0 0 0 0 0 0 0 0 0 
0 0 0 0 0 0 286 0 0 
0 0 0 0 0 187 270 0 0 
269 0 0 0 118 0 0 0 0 
0 0 0 0 251 0 0 0 0 
0 0 0 0 0 0 0 0 0 
0 0 0 0 0 0 0 0 0 
0 0 0 0 0 0 0 0 0 
0 0 0 0 0 0 0 0 0 
0 0 0 0 0 0 0 0 0 
0 0 0 0 0 244 245 0 0 
0 171 296 0 0 0 0 0 0 
0 0 0 0 0 0 0 0 0 
0 0 0 0 0 0 0 0 0 
0 0 0 0 0 0 0 0 0 
0 0 0 0 0 0 0 0 0 
0 0 0 0 0 0 0 0 0 
0 0 0 0 0 0 0 231 0 
0 322 0 275 0 0 0 0 0 
0 0 0 268 0 0 0 0 0 
0 0 0 0 0 0 0 0 0 
294 0 0 0 0 0 0 0 0 
0 0 0 0 0 0 0 0 0 
0 0 0 0 0 0 0 0 0 
0 0 0 0 0 0 0 0 268 
0 0 0 0 0 0 0 
ClusterId 1 2500 long
0 0 0 0 0 0 0 0 0 
0 0 0 0 0 0 213 0 0 
0 320 0 0 0 0 0 332 266 
0 0 0 0 0 0 0 0 0 
0 0 0 0 0 0 0 0 0 
0 0 0 0 0 0 0 0 0 
0 0 0 0 0 0 292 0 0 
0 0 0 0 0 0 0 0 199 
0 0 0 0 0 0 0 0 325 
0 0 0 0 0 0 0 0 0 
0 0 0 0 0 0 257 0 0 
0 0 0 0 0 0 0 0 0 
0 0 0 293 0 0 0 0 0 
0 0 0 0 0 0 0 0 0 
0 0 0 0 0 0 0 0 0 
0 0 0 0 0 0 0 0 230 
151 0 0 0 0 0 0 0 0 
0 0 0 0 0 0 0 0 0 
0 0 0 0 0 0 0 217 0 
0 0 0 0 0 0 0 0 0 
0 0 0 0 0 0 0 0 0 
0 0 0 0 0 0 0 0 0 
0 0 0 0 0 0 0 0 0 
147 126 0 0 0 0 0 0 0 
138 0 0 160 0 0 0 0 0 
0 0 0 0 0 0 0 0 0 
0 0 0 0 0 0 0 0 0 
0 0 0 0 205 0 0 0 0 
0 0 0 0 0 0 0 0 0 
290 0 0 0 0 0 0 0 0 
0 0 0 0 0 0 0 0 0 
0 0 235 336 0 0 222 0 0 
0 0 0 0 0 0 0 0 0 
311 0 0 0 0 0 0 0 0 
0 0 0 0 0 0 0 0 0 
0 0 0 261 312 0 0 0 0 
0 0 0 0 0 0 0 321 0 
0 0 0 0 0 0 0 214 0 
0 0 0 0 0 0 0 0 0 
0 0 0 0 0 0 0 0 0 
0 0 0 0 0 0 0 0 0 
0 0 0 77 0 0 0 0 0 
0 0 0 0 0 0 0 0 0 
0 0 0 0 0 0 0 0 0 
0 0 0 0 133 0 0 0 0 
0 0 0 63 0 0 0 0 0 
0 0 0 0 0 0 0 0 78 
0 0 215 0 0 0 43 0 0 
0 169 0 11 0 0 0 0 0 
0 0 0 0 0 0 0 0 0 
0 0 0 0 0 0 0 0 0 
0 0 0 62 0 0 317 0 0 
0 0 0 0 0 0 0 0 0 
0 0 0 0 0 0 0 0 0 
0 0 0 71 0 0 0 0 0 
0 0 0 0 0 0 0 0 0 
0 0 0 0 0 0 0 38 0 
0 0 0 0 0 0 0 0 0 
0 0 0 0 0 0 0 0 67 
100 0 0 0 184 0 220 0 0 
0 0 0 200 0 0 0 0 0 
0 0 0 0 328 0 0 0 0 
0 0 0 0 0 0 0 96 0 
0 25 0 0 0 0 0 0 0 
0 0 0 0 0 0 0 0 0 
0 0 0 0 0 0 0 0 0 
0 0 0 0 216 0 0 0 0 
0 0 0 0 0 0 0 0 0 
0 0 0 0 0 0 0 0 0 
0 0 0 0 0 0 0 274 68 
0 0 0 0 0 0 0 0 0 
31 0 7 0 0 0 0 0 216 
216 0 0 0 0 0 0 0 0 
175 0 0 0 69 0 0 0 0 
22 0 0 0 0 196 0 0 0 
0 0 0 0 0 0 0 0 33 
0 281 0 0 0 0 0 0 0 
0 0 0 0 0 0 0 0 0 
0 0 0 0 0 0 0 0 282 
0 0 0 0 8 0 61 0 0 
0 0 60 0 0 0 0 238 0 
0 0 0 0 0 0 0 0 0 
212 0 0 0 0 0 0 0 0 
0 0 0 0 0 0 0 0 0 
0 0 0 0 0 23 0 306 0 
0 0 0 0 85 0 0 0 0 
0 0 0 0 0 0 0 0 0 
0 0 0 0 0 0 0 0 0 
301 0 0 0 0 0 0 0 0 
0 0 0 0 0 330 0 0 0 
5 0 0 0 0 0 0 0 0 
0 0 0 0 0 0 0 0 0 
0 0 0 0 0 0 0 86 53 
0 0 0 0 0 0 0 0 208 
0 0 0 0 0 0 0 0 0 
0 0 0 0 0 0 0 0 0 
0 0 0 0 0 72 0 0 0 
0 0 0 0 0 0 0 0 0 
0 0 0 0 0 0 0 0 0 
0 0 0 0 0 0 0 0 0 
0 0 0 0 0 0 0 0 59 
0 0 0 0 0 0 0 0 0 
0 0 0 0 0 97 0 156 0 
0 0 0 0 0 0 0 51 0 
0 0 0 0 0 0 0 0 0 
0 0 0 0 0 0 0 0 0 
0 0 0 0 0 0 0 0 288 
0 0 0 0 0 0 54 0 0 
0 0 0 70 0 0 0 0 0 
3 0 0 0 0 0 0 0 0 
0 0 0 0 0 0 0 0 0 
0 0 0 0 0 0 0 203 0 
0 0 0 0 0 0 0 0 0 
0 0 42 57 0 0 0 0 0 
0 76 0 0 0 0 310 0 0 
0 0 0 315 0 0 0 0 0 
0 0 0 0 0 331 0 0 0 
0 0 0 0 0 0 0 0 0 
0 0 0 0 66 298 154 0 0 
0 0 0 0 0 0 186 0 0 
0 0 0 0 211 0 0 0 0 
0 0 0 0 143 0 0 0 0 
0 0 0 0 0 0 0 0 0 
0 0 0 0 0 0 0 0 0 
0 0 0 0 0 0 0 0 0 
0 84 0 0 0 0 0 0 0 
0 0 40 0 0 0 0 0 0 
0 0 0 0 0 0 0 0 0 
0 0 0 0 0 0 0 0 0 
0 0 0 0 0 0 0 0 0 
0 0 0 0 0 0 0 34 0 
0 0 0 110 0 0 0 88 209 
0 0 82 0 0 0 0 0 0 
0 0 0 0 0 0 0 0 0 
0 0 0 0 0 0 0 44 0 
0 218 0 29 0 0 0 0 0 
0 2 91 0 0 0 0 0 0 
0 0 0 0 0 0 0 0 0 
0 0 0 0 0 0 0 0 0 
280 0 0 0 0 0 0 0 0 
0 0 0 0 0 0 0 0 0 
0 307 0 0 0 0 0 0 0 
0 0 0 0 0 0 0 27 0 
0 0 41 0 0 0 0 0 0 
0 0 0 0 0 0 0 0 0 
0 0 0 0 0 0 0 0 0 
0 0 0 0 98 0 0 0 0 
10 0 0 0 0 0 0 0 0 
0 0 0 0 0 0 4 58 0 
0 0 0 0 0 271 0 0 0 
0 0 0 0 0 0 0 73 0 
0 0 0 0 75 0 0 0 0 
0 0 0 0 0 0 13 0 0 
55 0 0 0 0 0 0 0 0 
32 0 0 0 0 0 0 0 0 
0 0 0 0 0 0 0 0 0 
0 0 0 0 0 0 0 0 0 
0 0 0 0 0 0 0 0 0 
0 0 0 0 0 0 0 0 0 
0 0 0 0 0 0 0 0 49 
0 0 0 0 0 0 0 0 0 
0 0 198 0 0 0 0 0 0 
0 0 0 295 295 0 0 0 0 
0 0 0 0 0 0 0 0 0 
0 0 47 0 0 0 0 89 0 
0 0 0 37 0 0 0 30 0 
0 0 0 0 0 0 0 0 0 
0 0 0 0 0 0 0 0 0 
0 0 0 0 0 0 0 0 0 
0 0 0 0 0 299 0 0 0 
0 0 0 0 0 0 0 0 0 
0 0 0 0 0 0 316 0 0 
0 0 0 0 0 0 0 0 0 
0 0 0 0 0 0 0 0 95 
0 0 0 0 0 90 0 0 0 
0 0 0 48 0 0 0 0 0 
0 0 0 0 0 0 0 0 0 
0 0 0 0 0 0 0 0 0 
0 0 0 0 0 0 0 0 0 
83 0 0 0 0 0 52 87 0 
0 0 0 14 0 0 0 0 0 
0 0 0 0 166 0 0 0 0 
0 0 0 0 0 0 0 0 0 
0 0 0 0 243 197 0 0 0 
202 0 0 0 314 9 0 0 0 
0 0 0 0 0 0 21 0 0 
0 0 0 0 0 0 99 0 0 
0 0 0 0 0 0 0 0 64 
247 0 0 0 0 0 0 0 0 
0 0 0 0 0 0 0 0 0 
0 0 26 0 0 0 0 0 0 
0 80 0 0 45 0 0 0 0 
0 0 0 0 0 0 0 0 0 
0 125 0 0 0 0 0 0 0 
0 0 0 0 0 0 0 0 0 
0 0 0 0 0 0 0 0 195 
309 0 0 0 1 0 0 0 0 
0 0 0 0 0 94 0 0 0 
0 0 136 223 0 0 0 0 93 
35 0 0 0 0 0 0 0 0 
0 0 0 291 0 0 0 0 0 
0 0 0 0 0 0 0 0 0 
0 15 0 0 0 0 0 0 0 
0 0 0 0 0 0 0 0 0 
0 0 0 0 0 0 0 0 0 
0 0 0 0 0 0 0 0 291 
323 0 0 0 0 0 0 39 0 
0 0 0 179 0 19 139 46 0 
0 36 0 0 0 0 0 0 0 
0 0 50 0 0 0 0 221 0 
0 17 0 0 326 0 0 0 0 
329 0 0 0 0 0 0 0 0 
0 0 0 0 0 0 0 0 0 
0 0 0 0 0 0 0 0 0 
0 0 0 0 0 0 18 318 0 
0 0 0 0 0 0 0 0 0 
0 0 0 0 0 0 0 0 0 
0 0 0 0 0 0 0 0 0 
20 0 0 0 0 0 0 0 0 
0 0 0 0 0 0 140 0 0 
0 0 0 0 0 0 229 0 0 
0 24 0 0 0 0 0 285 0 
0 0 0 0 0 0 0 0 263 
0 0 0 74 0 0 0 0 0 
0 0 0 0 0 0 0 0 267 
0 0 6 0 0 327 0 0 56 
0 0 229 0 0 0 0 0 0 
0 0 0 0 0 0 0 0 0 
0 0 0 0 287 0 0 0 0 
0 0 0 0 0 0 0 0 0 
233 0 0 0 0 0 0 0 0 
0 0 0 0 0 0 0 0 0 
0 0 0 0 16 279 0 0 0 
0 0 0 0 0 0 0 0 0 
0 0 0 0 0 0 0 0 0 
0 0 0 0 0 0 0 0 0 
0 0 264 264 0 0 0 0 0 
0 0 0 0 0 0 0 81 0 
0 0 0 0 0 0 219 0 0 
246 0 0 0 0 0 0 0 0 
0 0 0 0 0 0 0 121 0 
0 0 0 0 303 0 0 0 0 
0 0 0 0 0 0 0 0 0 
0 0 0 0 0 0 0 0 0 
0 0 0 0 0 302 0 0 0 
0 0 0 0 0 0 0 0 0 
0 0 0 0 0 0 0 0 0 
0 0 0 0 0 0 0 0 0 
0 260 0 0 0 0 0 0 0 
0 270 0 0 0 0 0 0 0 
0 0 0 0 0 0 0 0 0 
0 0 0 0 0 0 283 0 0 
0 0 0 0 0 0 0 0 0 
0 0 0 0 0 0 286 0 0 
0 0 0 0 0 187 270 0 0 
269 0 0 0 118 0 0 0 0 
0 0 0 0 251 0 0 0 0 
0 0 0 0 0 0 0 0 0 
0 0 0 0 0 0 0 0 0 
0 0 0 0 0 0 0 0 0 
0 0 0 0 0 0 0 0 0 
0 0 0 0 0 0 0 0 0 
0 0 0 0 0 244 245 0 0 
0 171 296 0 0 0 0 0 0 
0 0 0 0 0 0 0 0 0 
0 0 0 0 0 0 0 0 0 
0 0 0 0 0 0 0 0 0 
0 0 0 0 0 0 0 0 0 
0 0 0 0 0 0 0 0 0 
0 0 0 0 0 0 0 231 0 
0 322 0 275 0 0 0 0 0 
0 0 0 268 0 0 0 0 0 
0 0 0 0 0 0 0 0 0 
294 0 0 0 0 0 0 0 0 
0 0 0 0 0 0 0 0 0 
0 0 0 0 0 0 0 0 0 
0 0 0 0 0 0 0 0 268 
0 0 0 0 0 0 0 
cytokine 1 2500 double
0 0 0 0 0 0 0 0 0 
0 0 0 0 0 0 0 0 0 
0 0 0 0 0 0 0 0 0 
0 0 0 0 0 0 0 0 0 
0 0 0 0 0 0 0 0 0 
0 0 0 0 0 0 0 0 0 
0 0 0 0 0 0 0 0 0 
0 0 0 0 0 0 0 0 0 
0 0 0 0 0 0 0 0 0 
0 0 0 0 0 0 0 0 0 
0 0 0 0 0 0 0 0 0 
0 0 0 0 0 0 0 0 0 
0 0 0 0 0 0 0 0 0 
0 0 0 0 0 0 0 0 0 
0 0 0 0 0 0 0 0 0 
0 0 0 0 0 0 0 0 0 
0 0 0 0 0 0 0 0 0 
0 0 0 0 0 0 0 0 0 
0 0 0 0 0 0 0 0 0 
0 0 0 0 0 0 0 0 0 
0 0 0 0 0 0 0 0 0 
0 0 0 0 0 0 0 0 0 
0 0 0 0 0 0 0 0 0 
0 0 0 0 0 0 0 0 0 
0 0 0 0 0 0 0 0 0 
0 0 0 0 0 0 0 0 0 
0 0 0 0 0 0 0 0 0 
0 0 0 0 0 0 0 0 0 
0 0 0 0 0 0 0 0 0 
0 0 0 0 0 0 0 0 0 
0 0 0 0 0 0 0 0 0 
0 0 0 0 0 0 0 0 0 
0 0 0 0 0 0 0 0 0 
0 0 0 0 0 0 0 0 0 
0 0 0 0 0 0 0 0 0 
0 0 0 0 0 0 0 0 0 
0 0 0 0 0 0 0 0 0 
0 0 0 0 0 0 0 0 0 
0 0 0 0 0 0 0 0 0 
0 0 0 0 0 0 0 0 0 
0 0 0 0 0 0 0 0 0 
0 0 0 0 0 0 0 0 0 
0 0 0 0 0 0 0 0 0 
0 0 0 0 0 0 0 0 0 
0 0 0 0 0 0 0 0 0 
0 0 0 0 0 0 0 0 0 
0 0 0 0 0 0 0 0 0 
0 0 0 0 0 0 0 0 0 
0 0 0 0 0 0 0 0 0 
0 0 0 0 0 0 0 0 0 
0 0 0 0 0 0 0 0 0 
0 0 0 0 0 0 0 0 0 
0 0 0 0 0 0 0 0 0 
0 0 0 0 0 0 0 0 0 
0 0 0 0 0 0 0 0 0 
0 0 0 0 0 0 0 0 0 
0 0 0 0 0 0 0 0 0 
0 0 0 0 0 0 0 0 0 
0 0 0 0 0 0 0 0 0 
0 0 0 0 0 0 0 0 0 
0 0 0 0 0 0 0 0 0 
0 0 0 0 0 0 0 0 0 
0 0 0 0 0 0 0 0 0 
0 0 0 0 0 0 0 0 0 
0 0 0 0 0 0 0 0 0 
0 0 0 0 0 0 0 0 0 
0 0 0 0 0 0 0 0 0 
0 0 0 0 0 0 0 0 0 
0 0 0 0 0 0 0 0 0 
0 0 0 0 0 0 0 0 0 
0 0 0 0 0 0 0 0 0 
0 0 0 0 0 0 0 0 0 
0 0 0 0 0 0 0 0 0 
0 0 0 0 0 0 0 0 0 
0 0 0 0 0 0 0 0 0 
0 0 0 0 0 0 0 0 0 
0 0 0 0 0 0 0 0 0 
0 0 0 0 0 0 0 0 0 
0 0 0 0 0 0 0 0 0 
0 0 0 0 0 0 0 0 0 
0 0 0 0 0 0 0 0 0 
0 0 0 0 0 0 0 0 0 
0 0 0 0 0 0 0 0 0 
0 0 0 0 0 0 0 0 0 
0 0 0 0 0 0 0 0 0 
0 0 0 0 0 0 0 0 0 
0 0 0 0 0 0 0 0 0 
0 0 0 0 0 0 0 0 0 
0 0 0 0 0 0 0 0 0 
0 0 0 0 0 0 0 0 0 
0 0 0 0 0 0 0 0 0 
0 0 0 0 0 0 0 0 0 
0 0 0 0 0 0 0 0 0 
0 0 0 0 0 0 0 0 0 
0 0 0 0 0 0 0 0 0 
0 0 0 0 0 0 0 0 0 
0 0 0 0 0 0 0 0 0 
0 0 0 0 0 0 0 0 0 
0 0 0 0 0 0 0 0 0 
0 0 0 0 0 0 0 0 0 
0 0 0 0 0 0 0 0 0 
0 0 0 0 0 0 0 0 0 
0 0 0 0 0 0 0 0 0 
0 0 0 0 0 0 0 0 0 
0 0 0 0 0 0 0 0 0 
0 0 0 0 0 0 0 0 0 
0 0 0 0 0 0 0 0 0 
0 0 0 0 0 0 0 0 0 
0 0 0 0 0 0 0 0 0 
0 0 0 0 0 0 0 0 0 
0 0 0 0 0 0 0 0 0 
0 0 0 0 0 0 0 0 0 
0 0 0 0 0 0 0 0 0 
0 0 0 0 0 0 0 0 0 
0 0 0 0 0 0 0 0 0 
0 0 0 0 0 0 0 0 0 
0 0 0 0 0 0 0 0 0 
0 0 0 0 0 0 0 0 0 
0 0 0 0 0 0 0 0 0 
0 0 0 0 0 0 0 0 0 
0 0 0 0 0 0 0 0 0 
0 0 0 0 0 0 0 0 0 
0 0 0 0 0 0 0 0 0 
0 0 0 0 0 0 0 0 0 
0 0 0 0 0 0 0 0 0 
0 0 0 0 0 0 0 0 0 
0 0 0 0 0 0 0 0 0 
0 0 0 0 0 0 0 0 0 
0 0 0 0 0 0 0 0 0 
0 0 0 0 0 0 0 0 0 
0 0 0 0 0 0 0 0 0 
0 0 0 0 0 0 0 0 0 
0 0 0 0 0 0 0 0 0 
0 0 0 0 0 0 0 0 0 
0 0 0 0 0 0 0 0 0 
0 0 0 0 0 0 0 0 0 
0 0 0 0 0 0 0 0 0 
0 0 0 0 0 0 0 0 0 
0 0 0 0 0 0 0 0 0 
0 0 0 0 0 0 0 0 0 
0 0 0 0 0 0 0 0 0 
0 0 0 0 0 0 0 0 0 
0 0 0 0 0 0 0 0 0 
0 0 0 0 0 0 0 0 0 
0 0 0 0 0 0 0 0 0 
0 0 0 0 0 0 0 0 0 
0 0 0 0 0 0 0 0 0 
0 0 0 0 0 0 0 0 0 
0 0 0 0 0 0 0 0 0 
0 0 0 0 0 0 0 0 0 
0 0 0 0 0 0 0 0 0 
0 0 0 0 0 0 0 0 0 
0 0 0 0 0 0 0 0 0 
0 0 0 0 0 0 0 0 0 
0 0 0 0 0 0 0 0 0 
0 0 0 0 0 0 0 0 0 
0 0 0 0 0 0 0 0 0 
0 0 0 0 0 0 0 0 0 
0 0 0 0 0 0 0 0 0 
0 0 0 0 0 0 0 0 0 
0 0 0 0 0 0 0 0 0 
0 0 0 0 0 0 0 0 0 
0 0 0 0 0 0 0 0 0 
0 0 0 0 0 0 0 0 0 
0 0 0 0 0 0 0 0 0 
0 0 0 0 0 0 0 0 0 
0 0 0 0 0 0 0 0 0 
0 0 0 0 0 0 0 0 0 
0 0 0 0 0 0 0 0 0 
0 0 0 0 0 0 0 0 0 
0 0 0 0 0 0 0 0 0 
0 0 0 0 0 0 0 0 0 
0 0 0 0 0 0 0 0 0 
0 0 0 0 0 0 0 0 0 
0 0 0 0 0 0 0 0 0 
0 0 0 0 0 0 0 0 0 
0 0 0 0 0 0 0 0 0 
0 0 0 0 0 0 0 0 0 
0 0 0 0 0 0 0 0 0 
0 0 0 0 0 0 0 0 0 
0 0 0 0 0 0 0 0 0 
0 0 0 0 0 0 0 0 0 
0 0 0 0 0 0 0 0 0 
0 0 0 0 0 0 0 0 0 
0 0 0 0 0 0 0 0 0 
0 0 0 0 0 0 0 0 0 
0 0 0 0 0 0 0 0 0 
0 0 0 0 0 0 0 0 0 
0 0 0 0 0 0 0 0 0 
0 0 0 0 0 0 0 0 0 
0 0 0 0 0 0 0 0 0 
0 0 0 0 0 0 0 0 0 
0 0 0 0 0 0 0 0 0 
0 0 0 0 0 0 0 0 0 
0 0 0 0 0 0 0 0 0 
0 0 0 0 0 0 0 0 0 
0 0 0 0 0 0 0 0 0 
0 0 0 0 0 0 0 0 0 
0 0 0 0 0 0 0 0 0 
0 0 0 0 0 0 0 0 0 
0 0 0 0 0 0 0 0 0 
0 0 0 0 0 0 0 0 0 
0 0 0 0 0 0 0 0 0 
0 0 0 0 0 0 0 0 0 
0 0 0 0 0 0 0 0 0 
0 0 0 0 0 0 0 0 0 
0 0 0 0 0 0 0 0 0 
0 0 0 0 0 0 0 0 0 
0 0 0 0 0 0 0 0 0 
0 0 0 0 0 0 0 0 0 
0 0 0 0 0 0 0 0 0 
0 0 0 0 0 0 0 0 0 
0 0 0 0 0 0 0 0 0 
0 0 0 0 0 0 0 0 0 
0 0 0 0 0 0 0 0 0 
0 0 0 0 0 0 0 0 0 
0 0 0 0 0 0 0 0 0 
0 0 0 0 0 0 0 0 0 
0 0 0 0 0 0 0 0 0 
0 0 0 0 0 0 0 0 0 
0 0 0 0 0 0 0 0 0 
0 0 0 0 0 0 0 0 0 
0 0 0 0 0 0 0 0 0 
0 0 0 0 0 0 0 0 0 
0 0 0 0 0 0 0 0 0 
0 0 0 0 0 0 0 0 0 
0 0 0 0 0 0 0 0 0 
0 0 0 0 0 0 0 0 0 
0 0 0 0 0 0 0 0 0 
0 0 0 0 0 0 0 0 0 
0 0 0 0 0 0 0 0 0 
0 0 0 0 0 0 0 0 0 
0 0 0 0 0 0 0 0 0 
0 0 0 0 0 0 0 0 0 
0 0 0 0 0 0 0 0 0 
0 0 0 0 0 0 0 0 0 
0 0 0 0 0 0 0 0 0 
0 0 0 0 0 0 0 0 0 
0 0 0 0 0 0 0 0 0 
0 0 0 0 0 0 0 0 0 
0 0 0 0 0 0 0 0 0 
0 0 0 0 0 0 0 0 0 
0 0 0 0 0 0 0 0 0 
0 0 0 0 0 0 0 0 0 
0 0 0 0 0 0 0 0 0 
0 0 0 0 0 0 0 0 0 
0 0 0 0 0 0 0 0 0 
0 0 0 0 0 0 0 0 0 
0 0 0 0 0 0 0 0 0 
0 0 0 0 0 0 0 0 0 
0 0 0 0 0 0 0 0 0 
0 0 0 0 0 0 0 0 0 
0 0 0 0 0 0 0 0 0 
0 0 0 0 0 0 0 0 0 
0 0 0 0 0 0 0 0 0 
0 0 0 0 0 0 0 0 0 
0 0 0 0 0 0 0 0 0 
0 0 0 0 0 0 0 0 0 
0 0 0 0 0 0 0 0 0 
0 0 0 0 0 0 0 0 0 
0 0 0 0 0 0 0 0 0 
0 0 0 0 0 0 0 0 0 
0 0 0 0 0 0 0 0 0 
0 0 0 0 0 0 0 0 0 
0 0 0 0 0 0 0 0 0 
0 0 0 0 0 0 0 0 0 
0 0 0 0 0 0 0 0 0 
0 0 0 0 0 0 0 0 0 
0 0 0 0 0 0 0 0 0 
0 0 0 0 0 0 0 0 0 
0 0 0 0 0 0 0 0 0 
0 0 0 0 0 0 0 0 0 
0 0 0 0 0 0 0 0 0 
0 0 0 0 0 0 0 0 0 
0 0 0 0 0 0 0 0 0 
0 0 0 0 0 0 0 0 0 
0 0 0 0 0 0 0 0 0 
0 0 0 0 0 0 0 
il1 1 2500 double
4.2233045986e-26 1.5778705896e-23 5.401156589e-21 1.6993396879e-18 4.815950876e-16 1.171939878e-13 2.2056108676e-11 2.4906561258e-09 2.2056108676e-11 
1.1719400136e-13 4.8432920408e-16 1.7156584104e-18 5.4693343661e-21 1.6013687049e-23 4.3049409171e-26 1.0752576417e-28 1.6986031952e-22 3.2053969288e-20 
3.6216485983e-18 3.2053969288e-20 1.6986031952e-22 8.4077907859e-45 0 0 0 1.0564347084e-39 5.4697710285e-37 
1.9267548567e-34 5.2715508483e-32 1.11606414e-29 1.6806926179e-27 1.3843801377e-25 1.6806926179e-27 1.11606414e-29 5.2715508483e-32 1.9267548567e-34 
5.4697710285e-37 1.0564347084e-39 0 0 0 2.5503632051e-43 1.0251198916e-40 3.6154352369e-38 1.0763692687e-35 
2.7227294229e-33 5.7240612778e-31 9.4875419717e-29 1.1102161061e-26 6.9086707516e-25 2.2615019071e-24 9.0379145152e-22 3.4047488135e-19 1.2024657067e-16 
3.882792254e-14 1.0970512693e-11 2.4797257581e-09 3.5032297774e-07 2.4797257581e-09 1.0970512693e-11 3.8827929316e-14 1.2024662361e-16 3.404751657e-19 
9.0379266321e-22 2.2668351985e-24 2.2648575242e-22 6.3972054774e-20 1.4460394274e-17 2.0429483893e-15 1.4460394274e-17 6.3972054774e-20 2.2648042603e-22 
0 0 1.0564347084e-39 6.3721556717e-37 2.6926709303e-34 9.2083231592e-32 2.5995100998e-29 5.8725109197e-27 9.6752261607e-25 
7.7917520792e-23 1.2291543898e-23 5.8725109197e-27 2.5995100998e-29 9.2083231592e-32 2.6926709303e-34 6.3721556717e-37 1.0564347084e-39 0 
1.9758308347e-43 8.9450486172e-41 3.6052096818e-38 1.2520046551e-35 3.7999000997e-33 9.9837293091e-31 2.205390083e-28 3.8662926537e-26 4.7872102919e-24 
3.1116124895e-22 5.3477669626e-26 2.0613060093e-23 7.2599227061e-21 2.3513142443e-18 6.905644155e-16 1.7570649525e-13 3.5328996673e-11 4.3713144215e-09 
3.5328996673e-11 1.7570649525e-13 6.905644155e-16 2.3513144511e-18 7.2599235139e-21 2.0613066404e-23 1.699139242e-22 6.3972054774e-20 2.1690421012e-17 
6.128684867e-15 1.154460208e-12 6.128684867e-15 2.1690421012e-17 6.3972054774e-20 1.6986031952e-22 7.9232638159e-40 5.4618479748e-37 2.6926709303e-34 
1.1049965457e-31 3.8992440849e-29 1.1744890106e-26 2.9025010909e-24 4.6747155083e-22 3.7806402988e-20 6.8646765839e-21 7.0846626021e-23 1.1744890106e-26 
3.8992440849e-29 1.1049965457e-31 2.6926709303e-34 5.4618479748e-37 7.9244409066e-40 5.9621045762e-41 2.7031739618e-38 1.072764008e-35 3.7981166544e-33 
1.1972857591e-30 3.3050715257e-28 7.7214660664e-26 1.4322621704e-23 1.8525008702e-21 1.3169813951e-19 6.775371994e-25 3.0656164714e-22 1.2990747443e-19 
5.2429023329e-17 1.9749537089e-14 6.6957151629e-12 1.8917649669e-09 3.5633479456e-07 1.8917649669e-09 6.6957151629e-12 1.9749537089e-14 5.2429023329e-17 
1.2990747443e-19 3.745057699e-22 3.1986705934e-20 1.4460394274e-17 6.128684867e-15 2.3088915762e-12 6.5238403568e-10 2.3088915762e-12 6.128684867e-15 
1.4460394274e-17 3.1986027387e-20 6.7944129072e-23 1.9233412165e-34 9.2083231592e-32 3.8992440849e-29 1.4681066602e-26 4.8374627038e-24 1.1686554511e-21 
1.8884860379e-19 1.7803390126e-17 3.8039302539e-18 3.3154681727e-20 1.7469777868e-22 1.4681066602e-26 3.8992440849e-29 9.2083231592e-32 1.9233412165e-34 
3.4139529564e-37 1.5454640503e-38 6.7029544829e-36 2.7120017512e-33 9.9729081783e-31 3.3030822808e-28 9.6435496976e-26 2.3838669736e-23 4.6192269565e-21 
6.5382847498e-19 5.3064701704e-17 1.0963793009e-26 4.7497599093e-24 1.8385535064e-21 6.4931227563e-19 2.0966340522e-16 5.9238556985e-14 1.3390048619e-11 
1.8916872513e-09 1.3390048619e-11 5.9238556985e-14 2.0966340522e-16 6.4931227563e-19 1.8498775606e-21 6.4019550612e-21 3.6152511834e-18 2.0429483893e-15 
1.154460208e-12 6.5238403568e-10 3.6866367736e-07 6.5238403568e-10 1.154460208e-12 2.0429483893e-15 3.6152511834e-18 6.3972052351e-21 1.1324020986e-23 
2.5995100998e-29 1.1744890106e-26 4.8374627038e-24 1.5581993584e-21 3.775772147e-19 7.1145380969e-17 8.0483901743e-15 2.1140297002e-15 1.4837744144e-17 
6.553024979e-20 2.3131787256e-22 1.1744890106e-26 2.5995100998e-29 5.261934129e-32 9.6173638545e-35 3.1301892102e-36 1.3556490538e-33 5.6969412125e-31 
2.2011275186e-28 7.7104891902e-26 2.3819449929e-23 6.1510034883e-21 1.3045599857e-18 2.109437617e-16 1.9955779447e-14 9.4236955885e-29 3.8448621379e-26 
1.4247225534e-23 4.5958570847e-21 1.2985120547e-18 3.1447694295e-16 5.9236856143e-14 6.6951140812e-12 5.9236856143e-14 3.1447694295e-16 1.2985120547e-18 
4.5958570847e-21 1.4247225534e-23 6.7982574997e-23 3.1986027387e-20 1.4460394274e-17 6.128684867e-15 2.3088915762e-12 6.5238403568e-10 2.3088915762e-12 
6.128684867e-15 1.4460394274e-17 3.1986027387e-20 6.7944129072e-23 1.1140908894e-29 5.8725109197e-27 2.9025010909e-24 1.1686554511e-21 3.7752057868e-19 
1.0668491144e-16 2.4122536108e-14 3.4110602797e-12 1.1785610465e-12 6.2353059863e-15 2.2067770882e-17 6.5140705883e-20 1.7276281016e-22 5.8725109197e-27 
1.1140908894e-29 1.9733430682e-32 4.8385317351e-34 2.1358457289e-31 9.4305723621e-29 3.8537476083e-26 1.4284178934e-23 4.6097301314e-21 1.3030281506e-18 
3.1576183899e-16 5.9549621365e-14 6.7542286868e-12 5.6962345053e-31 2.1956768961e-28 7.689163445e-26 2.3744053759e-23 6.1275592995e-21 1.2984803116e-18 
2.0965075267e-16 1.9746474218e-14 2.0965075267e-16 1.2984803116e-18 6.1275592995e-21 2.3744053759e-23 7.689163445e-26 2.1956768961e-28 1.6986031952e-22 
6.3972054774e-20 2.1690421012e-17 6.128684867e-15 1.154460208e-12 6.128684867e-15 2.1690421012e-17 6.3972054774e-20 1.6986031952e-22 2.7853152444e-30 
1.6779071454e-27 9.6752261607e-25 4.6747155083e-22 1.8874669256e-19 7.1113392241e-17 2.4115305835e-14 6.8158495341e-12 1.2850505104e-09 6.5919375514e-10 
2.3329925231e-12 6.1997661779e-15 1.4649072518e-17 3.2453497524e-20 6.8911651195e-23 1.6779071454e-27 2.7854057105e-30 5.1841152275e-32 2.3571763534e-29 
1.1007855975e-26 4.7597512271e-24 1.8430040451e-21 6.510712235e-19 2.1029456388e-16 5.9444799343e-14 1.3448802835e-11 1.9050379052e-09 2.7120691585e-33 
9.9467576608e-31 3.2933695753e-28 9.6111429218e-26 2.3743556777e-23 4.5956333259e-21 6.4924884122e-19 5.2416374083e-17 6.4924884122e-19 4.5956333259e-21 
2.3743556777e-23 9.6111423055e-26 3.2933693346e-28 9.9511417845e-31 2.7120357304e-33 2.2648042603e-22 6.3972054774e-20 1.4460394274e-17 2.0429483893e-15 
1.4460394274e-17 6.3972054774e-20 2.2648042603e-22 3.095108129e-31 2.0975758025e-28 1.3822826305e-25 7.7917520792e-23 3.7749783121e-20 1.7777800467e-17 
8.0375447644e-15 3.4069745723e-12 1.2838961005e-09 3.6309134543e-07 3.6994643438e-07 6.5578892317e-10 1.1624941461e-12 2.0607197758e-15 3.6529896445e-18 
6.4751225791e-21 1.1462249138e-23 2.0976232286e-28 2.9285167874e-30 1.3758646115e-27 6.79859458e-25 3.0709097912e-22 1.3016630441e-19 5.2545328232e-17 
1.9798549803e-14 6.7147398752e-12 1.8983434824e-09 3.5821545907e-07 1.1070522254e-35 3.8838939465e-33 1.2133081233e-30 3.3211559296e-28 7.709809414e-26 
1.4246163727e-23 1.8382978398e-21 1.2986216044e-19 1.8382978398e-21 1.424616215e-23 7.6888337257e-26 3.2933031308e-28 1.197960681e-30 3.1329853781e-31 
4.395851491e-33 1.1324020986e-23 1.6986031952e-22 3.1986027387e-20 3.6152511834e-18 3.1986027387e-20 1.6986031952e-22 6.4114183955e-36 4.385149717e-33 
2.7853152444e-30 1.6779071454e-27 9.6752261607e-25 4.6747155083e-22 1.8874669256e-19 7.1113392241e-17 2.4115305835e-14 6.8158495341e-12 1.2850505104e-09 
6.5919375514e-10 2.3329925231e-12 6.1997661779e-15 1.4649072518e-17 3.2453497524e-20 6.8911651195e-23 1.6779071454e-27 2.785416431e-30 5.4546452606e-32 
2.4140100947e-29 1.1101948438e-26 4.7707353264e-24 1.8436823898e-21 6.510712235e-19 2.1029456388e-16 5.9444799343e-14 1.3448802835e-11 1.9050379052e-09 
1.9291637018e-34 1.1324020986e-23 1.1144696054e-29 1.6789018882e-27 1.384478129e-25 4.0122411656e-26 4.7488842737e-24 3.0641780939e-22 4.7488732297e-24 
3.8444504511e-26 2.1955283588e-28 1.0143663309e-30 2.7891029694e-30 2.0975760433e-28 6.7944129072e-23 6.3972052351e-21 6.7944129072e-23 6.7944129072e-23 