# vtk DataFile Version 5.1
vtk output
ASCII
DATASET STRUCTURED_POINTS
DIMENSIONS 50 50 1
SPACING 1 1 1
ORIGIN 0 0 0
POINT_DATA 2500
FIELD FieldData 10
CellType 1 2500 char
0 0 0 0 0 0 0 0 0 
0 0 0 0 0 0 0 0 0 
0 0 0 0 0 0 0 0 0 
0 0 9 0 0 0 0 0 0 
0 0 0 0 0 0 0 0 0 
0 0 0 0 7 0 0 0 0 
0 0 0 0 0 0 0 0 0 
0 10 0 0 0 0 0 0 0 
0 0 0 0 0 0 0 0 0 
0 0 0 0 0 0 0 0 0 
0 0 0 0 0 0 0 0 0 
0 0 0 0 0 0 0 0 0 
0 0 0 0 0 0 0 0 0 
0 0 9 0 0 0 0 0 0 
0 0 0 10 0 9 10 0 0 
0 0 0 0 0 0 0 0 0 
0 0 0 0 0 0 0 0 0 
0 0 0 0 0 0 0 0 0 
0 0 0 0 10 0 0 0 0 
0 0 0 0 0 0 0 0 0 
0 0 0 0 0 0 0 0 0 
0 0 0 0 0 0 0 0 0 
9 0 0 0 0 0 0 0 0 
0 0 0 0 0 0 0 0 0 
0 0 0 10 0 0 0 7 0 
0 0 0 0 0 0 3 0 0 
0 0 0 0 0 0 0 0 0 
0 10 0 0 0 0 0 0 0 
0 0 0 0 0 0 0 0 0 
0 5 0 0 0 0 0 0 0 
0 0 0 0 0 0 0 0 0 
0 0 0 0 10 0 0 0 0 
0 0 0 0 0 0 0 0 0 
0 0 0 0 0 0 0 0 0 
0 0 0 9 0 0 0 0 0 
0 0 0 0 0 0 0 0 0 
0 0 0 0 0 0 0 0 0 
0 0 0 0 0 0 0 0 0 
0 0 0 0 0 0 0 0 0 
0 0 0 0 0 0 0 0 0 
0 0 0 0 0 0 0 0 0 
0 0 0 1 0 0 0 0 0 
0 0 0 0 0 0 0 0 0 
0 0 0 0 0 0 0 0 0 
0 0 0 0 0 0 0 9 0 
0 0 0 1 0 0 0 0 0 
0 0 0 0 0 0 0 0 1 
0 0 0 7 0 0 1 0 0 
0 0 0 1 0 0 0 0 0 
0 0 0 0 0 0 0 0 0 
0 0 0 0 0 0 0 0 0 
0 0 10 1 0 0 0 0 0 
0 0 0 0 0 0 0 9 0 
0 0 0 0 0 0 0 0 0 
0 0 0 1 0 0 0 0 0 
0 0 0 0 0 10 0 0 0 
0 0 0 0 0 0 0 1 0 
0 0 0 0 0 0 0 0 0 
0 0 0 0 0 0 0 0 1 
1 0 0 0 0 0 0 0 0 
0 0 0 0 0 0 0 0 0 
0 0 0 0 0 0 0 0 0 
0 0 0 0 0 0 0 1 0 
0 1 0 0 0 0 0 0 0 
0 0 0 0 0 0 0 0 0 
0 0 10 0 0 0 0 0 0 
0 0 0 0 0 0 0 0 0 
0 10 0 0 0 0 9 0 0 
0 0 0 0 0 0 0 0 0 
0 0 0 0 0 0 0 0 1 
0 0 0 0 0 0 0 0 0 
1 0 1 0 0 0 0 0 0 
0 0 0 0 0 0 10 0 0 
0 0 0 0 1 0 0 0 0 
1 0 0 0 0 0 0 0 0 
0 0 0 0 0 0 0 0 1 
0 0 0 0 0 0 0 0 0 
0 0 0 9 0 0 0 0 0 
10 0 0 0 0 0 0 0 0 
0 0 0 0 1 10 1 0 0 
0 0 1 0 0 0 0 0 0 
0 0 0 0 9 0 0 0 0 
0 0 0 0 0 0 0 0 0 
0 0 0 0 0 0 0 0 0 
0 0 0 0 0 1 0 0 0 
0 0 0 0 1 0 0 0 9 
0 0 0 0 0 0 0 0 0 
0 0 0 0 0 0 0 0 0 
9 0 0 0 0 0 0 0 0 
0 0 0 0 0 0 0 0 0 
1 0 0 0 0 0 0 0 0 
0 0 0 0 0 0 0 0 0 
0 0 0 0 0 0 0 1 1 
0 0 0 0 0 0 0 0 0 
9 9 0 0 0 0 0 0 0 
0 0 0 0 0 0 0 0 0 
0 0 0 0 0 1 0 0 0 
0 0 0 0 0 0 0 0 0 
0 0 0 0 0 0 0 0 0 
0 0 10 0 0 0 0 0 0 
0 0 0 0 0 0 0 0 1 
0 0 0 0 0 0 0 0 0 
0 0 0 0 0 1 0 0 0 
0 0 0 0 0 0 0 1 0 
0 0 0 0 0 0 0 0 0 
0 0 0 0 0 0 0 0 0 
0 0 0 0 0 0 0 0 0 
0 0 0 0 0 0 1 0 0 
0 0 0 1 0 0 0 0 0 
1 0 0 0 0 0 0 0 0 
0 0 0 0 0 0 0 0 0 
0 0 0 0 0 0 0 0 0 
0 0 0 0 0 0 0 0 0 
0 0 1 1 0 0 0 0 0 
0 1 0 0 0 0 0 0 0 
0 0 0 0 9 0 0 0 0 
0 0 0 0 0 0 0 0 0 
0 0 0 0 0 0 0 0 0 
0 0 0 0 1 0 0 0 0 
0 0 0 0 0 0 0 0 0 
0 0 0 0 0 0 0 0 0 
0 0 0 0 0 0 0 0 0 
0 0 0 0 0 0 0 0 0 
0 0 0 9 0 0 0 0 0 
0 0 0 0 0 0 0 0 0 
0 1 0 0 0 0 0 0 0 
0 0 1 0 0 0 0 0 0 
0 0 0 0 0 0 0 0 0 
0 0 0 0 0 0 0 0 0 
0 0 0 0 0 0 0 0 0 
0 0 0 0 0 0 4 1 0 
0 0 0 0 0 0 0 1 0 
0 0 1 0 0 0 0 0 0 
0 0 0 0 0 0 0 0 0 
0 0 0 0 0 0 0 1 0 
0 0 0 1 0 0 0 0 0 
0 1 1 0 0 0 0 0 0 
0 0 0 0 0 0 0 0 0 
0 0 0 0 0 0 0 0 0 
0 0 0 0 0 0 0 0 0 
0 0 0 0 0 0 0 0 0 
0 0 0 0 0 0 0 0 0 
0 0 0 0 0 0 0 1 0 
0 0 0 0 0 0 0 0 0 
0 0 0 0 0 0 0 0 0 
0 0 0 0 0 0 0 0 0 
0 0 0 0 1 0 0 0 0 
1 0 0 0 0 0 0 0 0 
0 0 0 0 0 0 1 1 0 
0 0 0 0 0 0 0 0 0 
0 0 0 0 0 0 0 1 0 
0 0 0 0 1 0 0 0 0 
0 0 0 0 0 0 1 0 0 
1 0 0 0 0 0 0 0 0 
1 0 0 0 0 0 0 0 0 
0 0 0 0 0 0 0 0 0 
0 0 0 0 0 0 0 0 0 
0 0 0 0 0 0 0 0 0 
0 0 0 0 0 0 0 0 0 
0 0 0 0 0 0 0 0 1 
0 0 0 0 0 0 0 0 0 
0 0 0 0 0 0 0 0 0 
0 0 0 0 0 0 0 0 0 
0 0 10 0 0 0 0 0 0 
0 0 1 0 0 0 0 1 0 
0 0 0 1 0 0 0 1 0 
0 0 0 0 0 10 10 0 0 
0 0 0 0 0 0 0 0 0 
0 0 0 0 0 0 0 0 0 
0 0 0 0 0 0 0 0 0 
0 0 0 0 0 0 0 0 0 
0 0 0 0 0 0 0 0 0 
0 0 0 0 0 0 0 0 9 
10 0 0 0 0 0 0 0 1 
0 0 0 0 0 1 0 9 0 
0 9 0 0 0 0 0 0 0 
0 0 0 0 0 0 10 0 0 
0 0 0 10 0 0 0 0 0 
0 0 0 0 0 0 0 0 0 
1 0 0 0 0 0 1 1 0 
0 0 0 1 0 0 0 0 0 
0 0 0 0 0 0 0 0 0 
0 0 0 0 0 0 0 0 0 
0 0 0 0 0 0 0 0 0 
0 0 0 0 0 1 0 0 0 
0 0 0 0 0 0 1 0 0 
0 0 0 0 0 0 1 0 0 
0 0 0 0 0 0 0 0 1 
0 0 0 0 0 0 0 0 0 
0 0 0 0 0 0 0 0 0 
0 0 1 0 0 0 0 0 0 
0 1 0 0 1 0 0 0 0 
0 0 0 0 0 0 0 0 0 
0 0 0 0 0 0 0 0 0 
0 0 0 0 0 0 0 0 0 
0 0 0 0 0 0 0 0 0 
0 0 0 0 1 0 0 0 0 
0 0 0 0 0 1 0 0 0 
0 0 0 0 0 0 0 0 1 
1 0 0 0 0 0 0 0 0 
0 0 0 0 0 9 0 0 0 
0 0 0 0 0 0 0 0 0 
0 1 0 0 0 0 0 0 0 
0 0 0 0 0 0 0 0 0 
0 0 0 0 0 0 0 0 0 
0 0 0 0 10 0 0 0 0 
0 0 0 0 0 9 0 1 0 
0 0 0 0 0 1 10 1 0 
0 1 0 0 0 0 0 0 0 
0 0 1 0 0 0 0 0 0 
0 1 0 0 0 0 0 0 0 
0 0 0 0 0 0 0 0 0 
0 0 0 0 0 0 0 0 0 
0 0 0 0 0 0 0 0 0 
0 0 0 0 0 0 1 0 0 
0 0 0 0 0 0 10 0 0 
0 0 0 0 0 0 0 0 0 
0 0 0 10 0 0 0 0 0 
1 0 0 9 0 0 0 0 0 
0 0 0 0 0 0 0 0 0 
0 0 0 0 0 0 0 0 0 
0 1 0 0 0 0 0 0 0 
0 0 0 0 0 0 0 0 0 
0 0 0 1 0 0 0 0 0 
0 0 0 0 0 0 0 0 0 
0 0 1 0 0 0 0 0 1 
0 0 0 0 0 0 0 0 0 
0 0 0 0 0 0 0 0 0 
0 10 0 0 0 0 0 0 0 
0 0 0 0 0 0 0 0 9 
0 0 0 0 0 0 0 0 0 
0 0 0 0 0 0 0 10 0 
0 0 0 0 1 0 0 0 0 
0 0 0 0 0 0 0 0 0 
0 0 0 0 0 0 0 0 0 
0 0 0 0 0 0 0 0 0 
0 0 0 0 0 0 0 0 0 
0 0 0 0 0 0 0 1 0 
0 0 0 0 0 0 0 0 0 
0 0 0 0 0 0 0 0 9 
9 0 0 0 0 0 0 0 0 
0 0 0 0 0 0 0 0 0 
0 0 0 0 0 0 0 0 0 
0 0 0 0 0 0 0 0 0 
0 0 0 0 0 0 0 0 0 
0 0 0 0 0 0 0 0 0 
0 0 0 0 0 0 0 0 0 
0 0 0 0 0 0 0 0 0 
0 0 0 0 0 0 0 0 0 
0 0 10 0 0 0 0 0 0 
10 0 0 0 0 0 0 0 0 
0 0 0 0 0 0 0 0 0 
0 0 0 0 0 0 0 0 0 
0 0 0 0 0 0 0 0 0 
0 0 0 0 0 0 0 0 0 
0 0 0 0 10 0 0 0 0 
0 9 0 0 0 0 0 0 0 
0 0 0 0 9 0 0 0 0 
0 0 0 0 0 0 0 0 0 
0 0 0 0 0 0 0 0 0 
0 0 0 0 0 0 0 0 0 
0 0 0 0 0 0 0 0 0 
0 0 0 0 0 0 0 0 0 
8 0 0 0 10 0 0 0 0 
0 0 0 0 0 0 0 0 0 
0 0 0 0 0 0 0 0 0 
0 0 0 0 0 0 0 0 0 
0 0 0 0 0 0 0 0 0 
0 0 0 0 0 0 0 0 0 
0 0 0 0 0 0 0 0 0 
0 0 0 0 0 0 0 0 0 
0 0 0 0 0 0 0 0 0 
0 0 0 0 0 0 0 0 0 
0 0 10 8 0 0 0 7 0 
0 0 0 0 0 0 0 0 0 
0 0 0 0 0 0 0 0 0 
0 0 0 0 0 0 10 0 0 
0 0 0 0 0 0 0 
CellId 1 2500 long
0 0 0 0 0 0 0 0 0 
0 0 0 0 0 0 0 0 0 
0 0 0 0 0 0 0 0 0 
0 0 432 0 0 0 0 0 0 
0 0 0 0 0 0 0 0 0 
0 0 0 0 450 0 0 0 0 
0 0 0 0 0 0 0 0 0 
0 417 0 0 0 0 0 0 0 
0 0 0 0 0 0 0 0 0 
0 0 0 0 0 0 0 0 0 
0 0 0 0 0 0 0 0 0 
0 0 0 0 0 0 0 0 0 
0 0 0 0 0 0 0 0 0 
0 0 427 0 0 0 0 0 0 
0 0 0 338 0 437 211 0 0 
0 0 0 0 0 0 0 0 0 
0 0 0 0 0 0 0 0 0 
0 0 0 0 0 0 0 0 0 
0 0 0 0 219 0 0 0 0 
0 0 0 0 0 0 0 0 0 
0 0 0 0 0 0 0 0 0 
0 0 0 0 0 0 0 0 0 
409 0 0 0 0 0 0 0 0 
0 0 0 0 0 0 0 0 0 
0 0 0 351 0 0 0 446 0 
0 0 0 0 0 0 452 0 0 
0 0 0 0 0 0 0 0 0 
0 325 0 0 0 0 0 0 0 
0 0 0 0 0 0 0 0 0 
0 441 0 0 0 0 0 0 0 
0 0 0 0 0 0 0 0 0 
0 0 0 0 213 0 0 0 0 
0 0 0 0 0 0 0 0 0 
0 0 0 0 0 0 0 0 0 
0 0 0 411 0 0 0 0 0 
0 0 0 0 0 0 0 0 0 
0 0 0 0 0 0 0 0 0 
0 0 0 0 0 0 0 0 0 
0 0 0 0 0 0 0 0 0 
0 0 0 0 0 0 0 0 0 
0 0 0 0 0 0 0 0 0 
0 0 0 77 0 0 0 0 0 
0 0 0 0 0 0 0 0 0 
0 0 0 0 0 0 0 0 0 
0 0 0 0 0 0 0 434 0 
0 0 0 63 0 0 0 0 0 
0 0 0 0 0 0 0 0 78 
0 0 0 451 0 0 43 0 0 
0 0 0 11 0 0 0 0 0 
0 0 0 0 0 0 0 0 0 
0 0 0 0 0 0 0 0 0 
0 0 391 62 0 0 0 0 0 
0 0 0 0 0 0 0 425 0 
0 0 0 0 0 0 0 0 0 
0 0 0 71 0 0 0 0 0 
0 0 0 0 0 216 0 0 0 
0 0 0 0 0 0 0 38 0 
0 0 0 0 0 0 0 0 0 
0 0 0 0 0 0 0 0 67 
100 0 0 0 0 0 0 0 0 
0 0 0 0 0 0 0 0 0 
0 0 0 0 0 0 0 0 0 
0 0 0 0 0 0 0 96 0 
0 25 0 0 0 0 0 0 0 
0 0 0 0 0 0 0 0 0 
0 0 442 0 0 0 0 0 0 
0 0 0 0 0 0 0 0 0 
0 403 0 0 0 0 431 0 0 
0 0 0 0 0 0 0 0 0 
0 0 0 0 0 0 0 0 68 
0 0 0 0 0 0 0 0 0 
31 0 7 0 0 0 0 0 0 
0 0 0 0 0 0 403 0 0 
0 0 0 0 69 0 0 0 0 
22 0 0 0 0 0 0 0 0 
0 0 0 0 0 0 0 0 33 
0 0 0 0 0 0 0 0 0 
0 0 0 436 0 0 0 0 0 
223 0 0 0 0 0 0 0 0 
0 0 0 0 8 339 61 0 0 
0 0 60 0 0 0 0 0 0 
0 0 0 0 439 0 0 0 0 
0 0 0 0 0 0 0 0 0 
0 0 0 0 0 0 0 0 0 
0 0 0 0 0 23 0 0 0 
0 0 0 0 85 0 0 0 447 
0 0 0 0 0 0 0 0 0 
0 0 0 0 0 0 0 0 0 
426 0 0 0 0 0 0 0 0 
0 0 0 0 0 0 0 0 0 
5 0 0 0 0 0 0 0 0 
0 0 0 0 0 0 0 0 0 
0 0 0 0 0 0 0 86 53 
0 0 0 0 0 0 0 0 0 
423 423 0 0 0 0 0 0 0 
0 0 0 0 0 0 0 0 0 
0 0 0 0 0 72 0 0 0 
0 0 0 0 0 0 0 0 0 
0 0 0 0 0 0 0 0 0 
0 0 326 0 0 0 0 0 0 
0 0 0 0 0 0 0 0 59 
0 0 0 0 0 0 0 0 0 
0 0 0 0 0 97 0 0 0 
0 0 0 0 0 0 0 51 0 
0 0 0 0 0 0 0 0 0 
0 0 0 0 0 0 0 0 0 
0 0 0 0 0 0 0 0 0 
0 0 0 0 0 0 54 0 0 
0 0 0 70 0 0 0 0 0 
3 0 0 0 0 0 0 0 0 
0 0 0 0 0 0 0 0 0 
0 0 0 0 0 0 0 0 0 
0 0 0 0 0 0 0 0 0 
0 0 42 57 0 0 0 0 0 
0 76 0 0 0 0 0 0 0 
0 0 0 0 435 0 0 0 0 
0 0 0 0 0 0 0 0 0 
0 0 0 0 0 0 0 0 0 
0 0 0 0 66 0 0 0 0 
0 0 0 0 0 0 0 0 0 
0 0 0 0 0 0 0 0 0 
0 0 0 0 0 0 0 0 0 
0 0 0 0 0 0 0 0 0 
0 0 0 413 0 0 0 0 0 
0 0 0 0 0 0 0 0 0 
0 84 0 0 0 0 0 0 0 
0 0 40 0 0 0 0 0 0 
0 0 0 0 0 0 0 0 0 
0 0 0 0 0 0 0 0 0 
0 0 0 0 0 0 0 0 0 
0 0 0 0 0 0 215 34 0 
0 0 0 0 0 0 0 88 0 
0 0 82 0 0 0 0 0 0 
0 0 0 0 0 0 0 0 0 
0 0 0 0 0 0 0 44 0 
0 0 0 29 0 0 0 0 0 
0 2 91 0 0 0 0 0 0 
0 0 0 0 0 0 0 0 0 
0 0 0 0 0 0 0 0 0 
0 0 0 0 0 0 0 0 0 
0 0 0 0 0 0 0 0 0 
0 0 0 0 0 0 0 0 0 
0 0 0 0 0 0 0 27 0 
0 0 0 0 0 0 0 0 0 
0 0 0 0 0 0 0 0 0 
0 0 0 0 0 0 0 0 0 
0 0 0 0 98 0 0 0 0 
10 0 0 0 0 0 0 0 0 
0 0 0 0 0 0 4 58 0 
0 0 0 0 0 0 0 0 0 
0 0 0 0 0 0 0 73 0 
0 0 0 0 75 0 0 0 0 
0 0 0 0 0 0 13 0 0 
55 0 0 0 0 0 0 0 0 
32 0 0 0 0 0 0 0 0 
0 0 0 0 0 0 0 0 0 
0 0 0 0 0 0 0 0 0 
0 0 0 0 0 0 0 0 0 
0 0 0 0 0 0 0 0 0 
0 0 0 0 0 0 0 0 49 
0 0 0 0 0 0 0 0 0 
0 0 0 0 0 0 0 0 0 
0 0 0 0 0 0 0 0 0 
0 0 430 0 0 0 0 0 0 
0 0 47 0 0 0 0 89 0 
0 0 0 37 0 0 0 30 0 
0 0 0 0 0 212 443 0 0 
0 0 0 0 0 0 0 0 0 
0 0 0 0 0 0 0 0 0 
0 0 0 0 0 0 0 0 0 
0 0 0 0 0 0 0 0 0 
0 0 0 0 0 0 0 0 0 
0 0 0 0 0 0 0 0 445 
352 0 0 0 0 0 0 0 95 
0 0 0 0 0 90 0 405 0 
0 453 0 0 0 0 0 0 0 
0 0 0 0 0 0 377 0 0 
0 0 0 364 0 0 0 0 0 
0 0 0 0 0 0 0 0 0 
83 0 0 0 0 0 52 87 0 
0 0 0 14 0 0 0 0 0 
0 0 0 0 0 0 0 0 0 
0 0 0 0 0 0 0 0 0 
0 0 0 0 0 0 0 0 0 
0 0 0 0 0 9 0 0 0 
0 0 0 0 0 0 21 0 0 
0 0 0 0 0 0 99 0 0 
0 0 0 0 0 0 0 0 64 
0 0 0 0 0 0 0 0 0 
0 0 0 0 0 0 0 0 0 
0 0 26 0 0 0 0 0 0 
0 80 0 0 45 0 0 0 0 
0 0 0 0 0 0 0 0 0 
0 0 0 0 0 0 0 0 0 
0 0 0 0 0 0 0 0 0 
0 0 0 0 0 0 0 0 0 
0 0 0 0 1 0 0 0 0 
0 0 0 0 0 94 0 0 0 
0 0 0 0 0 0 0 0 93 
35 0 0 0 0 0 0 0 0 
0 0 0 0 0 406 0 0 0 
0 0 0 0 0 0 0 0 0 
0 15 0 0 0 0 0 0 0 
0 0 0 0 0 0 0 0 0 
0 0 0 0 0 0 0 0 0 
0 0 0 0 214 0 0 0 0 
0 0 0 0 0 410 0 39 0 
0 0 0 0 0 19 217 46 0 
0 36 0 0 0 0 0 0 0 
0 0 50 0 0 0 0 0 0 
0 17 0 0 0 0 0 0 0 
0 0 0 0 0 0 0 0 0 
0 0 0 0 0 0 0 0 0 
0 0 0 0 0 0 0 0 0 
0 0 0 0 0 0 18 0 0 
0 0 0 0 0 0 220 0 0 
0 0 0 0 0 0 0 0 0 
0 0 0 390 0 0 0 0 0 
20 0 0 433 0 0 0 0 0 
0 0 0 0 0 0 0 0 0 
0 0 0 0 0 0 0 0 0 
0 24 0 0 0 0 0 0 0 
0 0 0 0 0 0 0 0 0 
0 0 0 74 0 0 0 0 0 
0 0 0 0 0 0 0 0 0 
0 0 6 0 0 0 0 0 56 
0 0 0 0 0 0 0 0 0 
0 0 0 0 0 0 0 0 0 
0 218 0 0 0 0 0 0 0 
0 0 0 0 0 0 0 0 419 
0 0 0 0 0 0 0 0 0 
0 0 0 0 0 0 0 221 0 
0 0 0 0 16 0 0 0 0 
0 0 0 0 0 0 0 0 0 
0 0 0 0 0 0 0 0 0 
0 0 0 0 0 0 0 0 0 
0 0 0 0 0 0 0 0 0 
0 0 0 0 0 0 0 81 0 
0 0 0 0 0 0 0 0 0 
0 0 0 0 0 0 0 0 438 
438 0 0 0 0 0 0 0 0 
0 0 0 0 0 0 0 0 0 
0 0 0 0 0 0 0 0 0 
0 0 0 0 0 0 0 0 0 
0 0 0 0 0 0 0 0 0 
0 0 0 0 0 0 0 0 0 
0 0 0 0 0 0 0 0 0 
0 0 0 0 0 0 0 0 0 
0 0 0 0 0 0 0 0 0 
0 0 222 0 0 0 0 0 0 
365 0 0 0 0 0 0 0 0 
0 0 0 0 0 0 0 0 0 
0 0 0 0 0 0 0 0 0 
0 0 0 0 0 0 0 0 0 
0 0 0 0 0 0 0 0 0 
0 0 0 0 365 0 0 0 0 
0 408 0 0 0 0 0 0 0 
0 0 0 0 422 0 0 0 0 
0 0 0 0 0 0 0 0 0 
0 0 0 0 0 0 0 0 0 
0 0 0 0 0 0 0 0 0 
0 0 0 0 0 0 0 0 0 
0 0 0 0 0 0 0 0 0 
448 0 0 0 404 0 0 0 0 
0 0 0 0 0 0 0 0 0 
0 0 0 0 0 0 0 0 0 
0 0 0 0 0 0 0 0 0 
0 0 0 0 0 0 0 0 0 
0 0 0 0 0 0 0 0 0 
0 0 0 0 0 0 0 0 0 
0 0 0 0 0 0 0 0 0 
0 0 0 0 0 0 0 0 0 
0 0 0 0 0 0 0 0 0 
0 0 429 444 0 0 0 449 0 
0 0 0 0 0 0 0 0 0 
0 0 0 0 0 0 0 0 0 
0 0 0 0 0 0 416 0 0 
0 0 0 0 0 0 0 
ClusterId 1 2500 long
0 0 0 0 0 0 0 0 0 
0 0 0 0 0 0 0 0 0 
0 0 0 0 0 0 0 0 0 
0 0 432 0 0 0 0 0 0 
0 0 0 0 0 0 0 0 0 
0 0 0 0 450 0 0 0 0 
0 0 0 0 0 0 0 0 0 
0 417 0 0 0 0 0 0 0 
0 0 0 0 0 0 0 0 0 
0 0 0 0 0 0 0 0 0 
0 0 0 0 0 0 0 0 0 
0 0 0 0 0 0 0 0 0 
0 0 0 0 0 0 0 0 0 
0 0 427 0 0 0 0 0 0 
0 0 0 338 0 437 211 0 0 
0 0 0 0 0 0 0 0 0 
0 0 0 0 0 0 0 0 0 
0 0 0 0 0 0 0 0 0 
0 0 0 0 219 0 0 0 0 
0 0 0 0 0 0 0 0 0 
0 0 0 0 0 0 0 0 0 
0 0 0 0 0 0 0 0 0 
409 0 0 0 0 0 0 0 0 
0 0 0 0 0 0 0 0 0 
0 0 0 351 0 0 0 446 0 
0 0 0 0 0 0 452 0 0 
0 0 0 0 0 0 0 0 0 
0 325 0 0 0 0 0 0 0 
0 0 0 0 0 0 0 0 0 
0 441 0 0 0 0 0 0 0 
0 0 0 0 0 0 0 0 0 
0 0 0 0 213 0 0 0 0 
0 0 0 0 0 0 0 0 0 
0 0 0 0 0 0 0 0 0 
0 0 0 411 0 0 0 0 0 
0 0 0 0 0 0 0 0 0 
0 0 0 0 0 0 0 0 0 
0 0 0 0 0 0 0 0 0 
0 0 0 0 0 0 0 0 0 
0 0 0 0 0 0 0 0 0 
0 0 0 0 0 0 0 0 0 
0 0 0 77 0 0 0 0 0 
0 0 0 0 0 0 0 0 0 
0 0 0 0 0 0 0 0 0 
0 0 0 0 0 0 0 434 0 
0 0 0 63 0 0 0 0 0 
0 0 0 0 0 0 0 0 78 
0 0 0 451 0 0 43 0 0 
0 0 0 11 0 0 0 0 0 
0 0 0 0 0 0 0 0 0 
0 0 0 0 0 0 0 0 0 
0 0 391 62 0 0 0 0 0 
0 0 0 0 0 0 0 425 0 
0 0 0 0 0 0 0 0 0 
0 0 0 71 0 0 0 0 0 
0 0 0 0 0 216 0 0 0 
0 0 0 0 0 0 0 38 0 
0 0 0 0 0 0 0 0 0 
0 0 0 0 0 0 0 0 67 
100 0 0 0 0 0 0 0 0 
0 0 0 0 0 0 0 0 0 
0 0 0 0 0 0 0 0 0 
0 0 0 0 0 0 0 96 0 
0 25 0 0 0 0 0 0 0 
0 0 0 0 0 0 0 0 0 
0 0 442 0 0 0 0 0 0 
0 0 0 0 0 0 0 0 0 
0 403 0 0 0 0 431 0 0 
0 0 0 0 0 0 0 0 0 
0 0 0 0 0 0 0 0 68 
0 0 0 0 0 0 0 0 0 
31 0 7 0 0 0 0 0 0 
0 0 0 0 0 0 403 0 0 
0 0 0 0 69 0 0 0 0 
22 0 0 0 0 0 0 0 0 
0 0 0 0 0 0 0 0 33 
0 0 0 0 0 0 0 0 0 
0 0 0 436 0 0 0 0 0 
223 0 0 0 0 0 0 0 0 
0 0 0 0 8 339 61 0 0 
0 0 60 0 0 0 0 0 0 
0 0 0 0 439 0 0 0 0 
0 0 0 0 0 0 0 0 0 
0 0 0 0 0 0 0 0 0 
0 0 0 0 0 23 0 0 0 
0 0 0 0 85 0 0 0 447 
0 0 0 0 0 0 0 0 0 
0 0 0 0 0 0 0 0 0 
426 0 0 0 0 0 0 0 0 
0 0 0 0 0 0 0 0 0 
5 0 0 0 0 0 0 0 0 
0 0 0 0 0 0 0 0 0 
0 0 0 0 0 0 0 86 53 
0 0 0 0 0 0 0 0 0 
423 423 0 0 0 0 0 0 0 
0 0 0 0 0 0 0 0 0 
0 0 0 0 0 72 0 0 0 
0 0 0 0 0 0 0 0 0 
0 0 0 0 0 0 0 0 0 
0 0 326 0 0 0 0 0 0 
0 0 0 0 0 0 0 0 59 
0 0 0 0 0 0 0 0 0 
0 0 0 0 0 97 0 0 0 
0 0 0 0 0 0 0 51 0 
0 0 0 0 0 0 0 0 0 
0 0 0 0 0 0 0 0 0 
0 0 0 0 0 0 0 0 0 
0 0 0 0 0 0 54 0 0 
0 0 0 70 0 0 0 0 0 
3 0 0 0 0 0 0 0 0 
0 0 0 0 0 0 0 0 0 
0 0 0 0 0 0 0 0 0 
0 0 0 0 0 0 0 0 0 
0 0 42 57 0 0 0 0 0 
0 76 0 0 0 0 0 0 0 
0 0 0 0 435 0 0 0 0 
0 0 0 0 0 0 0 0 0 
0 0 0 0 0 0 0 0 0 
0 0 0 0 66 0 0 0 0 
0 0 0 0 0 0 0 0 0 
0 0 0 0 0 0 0 0 0 
0 0 0 0 0 0 0 0 0 
0 0 0 0 0 0 0 0 0 
0 0 0 413 0 0 0 0 0 
0 0 0 0 0 0 0 0 0 
0 84 0 0 0 0 0 0 0 
0 0 40 0 0 0 0 0 0 
0 0 0 0 0 0 0 0 0 
0 0 0 0 0 0 0 0 0 
0 0 0 0 0 0 0 0 0 
0 0 0 0 0 0 215 34 0 
0 0 0 0 0 0 0 88 0 
0 0 82 0 0 0 0 0 0 
0 0 0 0 0 0 0 0 0 
0 0 0 0 0 0 0 44 0 
0 0 0 29 0 0 0 0 0 
0 2 91 0 0 0 0 0 0 
0 0 0 0 0 0 0 0 0 
0 0 0 0 0 0 0 0 0 
0 0 0 0 0 0 0 0 0 
0 0 0 0 0 0 0 0 0 
0 0 0 0 0 0 0 0 0 
0 0 0 0 0 0 0 27 0 
0 0 0 0 0 0 0 0 0 
0 0 0 0 0 0 0 0 0 
0 0 0 0 0 0 0 0 0 
0 0 0 0 98 0 0 0 0 
10 0 0 0 0 0 0 0 0 
0 0 0 0 0 0 4 58 0 
0 0 0 0 0 0 0 0 0 
0 0 0 0 0 0 0 73 0 
0 0 0 0 75 0 0 0 0 
0 0 0 0 0 0 13 0 0 
55 0 0 0 0 0 0 0 0 
32 0 0 0 0 0 0 0 0 
0 0 0 0 0 0 0 0 0 
0 0 0 0 0 0 0 0 0 
0 0 0 0 0 0 0 0 0 
0 0 0 0 0 0 0 0 0 
0 0 0 0 0 0 0 0 49 
0 0 0 0 0 0 0 0 0 
0 0 0 0 0 0 0 0 0 
0 0 0 0 0 0 0 0 0 
0 0 430 0 0 0 0 0 0 
0 0 47 0 0 0 0 89 0 
0 0 0 37 0 0 0 30 0 
0 0 0 0 0 212 443 0 0 
0 0 0 0 0 0 0 0 0 
0 0 0 0 0 0 0 0 0 
0 0 0 0 0 0 0 0 0 
0 0 0 0 0 0 0 0 0 
0 0 0 0 0 0 0 0 0 
0 0 0 0 0 0 0 0 445 
352 0 0 0 0 0 0 0 95 
0 0 0 0 0 90 0 405 0 
0 453 0 0 0 0 0 0 0 
0 0 0 0 0 0 377 0 0 
0 0 0 364 0 0 0 0 0 
0 0 0 0 0 0 0 0 0 
83 0 0 0 0 0 52 87 0 
0 0 0 14 0 0 0 0 0 
0 0 0 0 0 0 0 0 0 
0 0 0 0 0 0 0 0 0 
0 0 0 0 0 0 0 0 0 
0 0 0 0 0 9 0 0 0 
0 0 0 0 0 0 21 0 0 
0 0 0 0 0 0 99 0 0 
0 0 0 0 0 0 0 0 64 
0 0 0 0 0 0 0 0 0 
0 0 0 0 0 0 0 0 0 
0 0 26 0 0 0 0 0 0 
0 80 0 0 45 0 0 0 0 
0 0 0 0 0 0 0 0 0 
0 0 0 0 0 0 0 0 0 
0 0 0 0 0 0 0 0 0 
0 0 0 0 0 0 0 0 0 
0 0 0 0 1 0 0 0 0 
0 0 0 0 0 94 0 0 0 
0 0 0 0 0 0 0 0 93 
35 0 0 0 0 0 0 0 0 
0 0 0 0 0 406 0 0 0 
0 0 0 0 0 0 0 0 0 
0 15 0 0 0 0 0 0 0 
0 0 0 0 0 0 0 0 0 
0 0 0 0 0 0 0 0 0 
0 0 0 0 214 0 0 0 0 
0 0 0 0 0 410 0 39 0 
0 0 0 0 0 19 217 46 0 
0 36 0 0 0 0 0 0 0 
0 0 50 0 0 0 0 0 0 
0 17 0 0 0 0 0 0 0 
0 0 0 0 0 0 0 0 0 
0 0 0 0 0 0 0 0 0 
0 0 0 0 0 0 0 0 0 
0 0 0 0 0 0 18 0 0 
0 0 0 0 0 0 220 0 0 
0 0 0 0 0 0 0 0 0 
0 0 0 390 0 0 0 0 0 
20 0 0 433 0 0 0 0 0 
0 0 0 0 0 0 0 0 0 
0 0 0 0 0 0 0 0 0 
0 24 0 0 0 0 0 0 0 
0 0 0 0 0 0 0 0 0 
0 0 0 74 0 0 0 0 0 
0 0 0 0 0 0 0 0 0 
0 0 6 0 0 0 0 0 56 
0 0 0 0 0 0 0 0 0 
0 0 0 0 0 0 0 0 0 
0 218 0 0 0 0 0 0 0 
0 0 0 0 0 0 0 0 419 
0 0 0 0 0 0 0 0 0 
0 0 0 0 0 0 0 221 0 
0 0 0 0 16 0 0 0 0 
0 0 0 0 0 0 0 0 0 
0 0 0 0 0 0 0 0 0 
0 0 0 0 0 0 0 0 0 
0 0 0 0 0 0 0 0 0 
0 0 0 0 0 0 0 81 0 
0 0 0 0 0 0 0 0 0 
0 0 0 0 0 0 0 0 438 
438 0 0 0 0 0 0 0 0 
0 0 0 0 0 0 0 0 0 
0 0 0 0 0 0 0 0 0 
0 0 0 0 0 0 0 0 0 
0 0 0 0 0 0 0 0 0 
0 0 0 0 0 0 0 0 0 
0 0 0 0 0 0 0 0 0 
0 0 0 0 0 0 0 0 0 
0 0 0 0 0 0 0 0 0 
0 0 222 0 0 0 0 0 0 
365 0 0 0 0 0 0 0 0 
0 0 0 0 0 0 0 0 0 
0 0 0 0 0 0 0 0 0 
0 0 0 0 0 0 0 0 0 
0 0 0 0 0 0 0 0 0 
0 0 0 0 365 0 0 0 0 
0 408 0 0 0 0 0 0 0 
0 0 0 0 422 0 0 0 0 
0 0 0 0 0 0 0 0 0 
0 0 0 0 0 0 0 0 0 
0 0 0 0 0 0 0 0 0 
0 0 0 0 0 0 0 0 0 
0 0 0 0 0 0 0 0 0 
448 0 0 0 404 0 0 0 0 
0 0 0 0 0 0 0 0 0 
0 0 0 0 0 0 0 0 0 
0 0 0 0 0 0 0 0 0 
0 0 0 0 0 0 0 0 0 
0 0 0 0 0 0 0 0 0 
0 0 0 0 0 0 0 0 0 
0 0 0 0 0 0 0 0 0 
0 0 0 0 0 0 0 0 0 
0 0 0 0 0 0 0 0 0 
0 0 429 444 0 0 0 449 0 
0 0 0 0 0 0 0 0 0 
0 0 0 0 0 0 0 0 0 
0 0 0 0 0 0 416 0 0 
0 0 0 0 0 0 0 
cytokine 1 2500 double
0 0 0 0 0 0 0 0 0 
0 0 0 0 0 0 0 0 0 
0 0 0 0 0 0 0 0 0 
0 0 0 0 0 0 0 0 0 
0 0 0 0 0 0 0 0 0 
0 0 0 0 0 0 0 0 0 
0 0 0 0 0 0 0 0 0 
0 0 0 0 0 0 0 0 0 
0 0 0 0 0 0 0 0 0 
0 0 0 0 0 0 0 0 0 
0 0 0 0 0 0 0 0 0 
0 0 0 0 0 0 0 0 0 
0 0 0 0 0 0 0 0 0 
0 0 0 0 0 0 0 0 0 
0 0 0 0 0 0 0 0 0 
0 0 0 0 0 0 0 0 0 
0 0 0 0 0 0 0 0 0 
0 0 0 0 0 0 0 0 0 
0 0 0 0 0 0 0 0 0 
0 0 0 0 0 0 0 0 0 
0 0 0 0 0 0 0 0 0 
0 0 0 0 0 0 0 0 0 
0 0 0 0 0 0 0 0 0 
0 0 0 0 0 0 0 0 0 
0 0 0 0 0 0 0 0 0 
0 0 0 0 0 0 0 0 0 
0 0 0 0 0 0 0 0 0 
0 0 0 0 0 0 0 0 0 
0 0 0 0 0 0 0 0 0 
0 0 0 0 0 0 0 0 0 
0 0 0 0 0 0 0 0 0 
0 0 0 0 0 0 0 0 0 
0 0 0 0 0 0 0 0 0 
0 0 0 0 0 0 0 0 0 
0 0 0 0 0 0 0 0 0 
0 0 0 0 0 0 0 0 0 
0 0 0 0 0 0 0 0 0 
0 0 0 0 0 0 0 0 0 
0 0 0 0 0 0 0 0 0 
0 0 0 0 0 0 0 0 0 
0 0 0 0 0 0 0 0 0 
0 0 0 0 0 0 0 0 0 
0 0 0 0 0 0 0 0 0 
0 0 0 0 0 0 0 0 0 
0 0 0 0 0 0 0 0 0 
0 0 0 0 0 0 0 0 0 
0 0 0 0 0 0 0 0 0 
0 0 0 0 0 0 0 0 0 
0 0 0 0 0 0 0 0 0 
0 0 0 0 0 0 0 0 0 
0 0 0 0 0 0 0 0 0 
0 0 0 0 0 0 0 0 0 
0 0 0 0 0 0 0 0 0 
0 0 0 0 0 0 0 0 0 
0 0 0 0 0 0 0 0 0 
0 0 0 0 0 0 0 0 0 
0 0 0 0 0 0 0 0 0 
0 0 0 0 0 0 0 0 0 
0 0 0 0 0 0 0 0 0 
0 0 0 0 0 0 0 0 0 
0 0 0 0 0 0 0 0 0 
0 0 0 0 0 0 0 0 0 
0 0 0 0 0 0 0 0 0 
0 0 0 0 0 0 0 0 0 
0 0 0 0 0 0 0 0 0 
0 0 0 0 0 0 0 0 0 
0 0 0 0 0 0 0 0 0 
0 0 0 0 0 0 0 0 0 
0 0 0 0 0 0 0 0 0 
0 0 0 0 0 0 0 0 0 
0 0 0 0 0 0 0 0 0 
0 0 0 0 0 0 0 0 0 
0 0 0 0 0 0 0 0 0 
0 0 0 0 0 0 0 0 0 
0 0 0 0 0 0 0 0 0 
0 0 0 0 0 0 0 0 0 
0 0 0 0 0 0 0 0 0 
0 0 0 0 0 0 0 0 0 
0 0 0 0 0 0 0 0 0 
0 0 0 0 0 0 0 0 0 
0 0 0 0 0 0 0 0 0 
0 0 0 0 0 0 0 0 0 
0 0 0 0 0 0 0 0 0 
0 0 0 0 0 0 0 0 0 
0 0 0 0 0 0 0 0 0 
0 0 0 0 0 0 0 0 0 
0 0 0 0 0 0 0 0 0 
0 0 0 0 0 0 0 0 0 
0 0 0 0 0 0 0 0 0 
0 0 0 0 0 0 0 0 0 
0 0 0 0 0 0 0 0 0 
0 0 0 0 0 0 0 0 0 
0 0 0 0 0 0 0 0 0 
0 0 0 0 0 0 0 0 0 
0 0 0 0 0 0 0 0 0 
0 0 0 0 0 0 0 0 0 
0 0 0 0 0 0 0 0 0 
0 0 0 0 0 0 0 0 0 
0 0 0 0 0 0 0 0 0 
0 0 0 0 0 0 0 0 0 
0 0 0 0 0 0 0 0 0 
0 0 0 0 0 0 0 0 0 
0 0 0 0 0 0 0 0 0 
0 0 0 0 0 0 0 0 0 
0 0 0 0 0 0 0 0 0 
0 0 0 0 0 0 0 0 0 
0 0 0 0 0 0 0 0 0 
0 0 0 0 0 0 0 0 0 
0 0 0 0 0 0 0 0 0 
0 0 0 0 0 0 0 0 0 
0 0 0 0 0 0 0 0 0 
0 0 0 0 0 0 0 0 0 
0 0 0 0 0 0 0 0 0 
0 0 0 0 0 0 0 0 0 
0 0 0 0 0 0 0 0 0 
0 0 0 0 0 0 0 0 0 
0 0 0 0 0 0 0 0 0 
0 0 0 0 0 0 0 0 0 
0 0 0 0 0 0 0 0 0 
0 0 0 0 0 0 0 0 0 
0 0 0 0 0 0 0 0 0 
0 0 0 0 0 0 0 0 0 
0 0 0 0 0 0 0 0 0 
0 0 0 0 0 0 0 0 0 
0 0 0 0 0 0 0 0 0 
0 0 0 0 0 0 0 0 0 
0 0 0 0 0 0 0 0 0 
0 0 0 0 0 0 0 0 0 
0 0 0 0 0 0 0 0 0 
0 0 0 0 0 0 0 0 0 
0 0 0 0 0 0 0 0 0 
0 0 0 0 0 0 0 0 0 
0 0 0 0 0 0 0 0 0 
0 0 0 0 0 0 0 0 0 
0 0 0 0 0 0 0 0 0 
0 0 0 0 0 0 0 0 0 
0 0 0 0 0 0 0 0 0 
0 0 0 0 0 0 0 0 0 
0 0 0 0 0 0 0 0 0 
0 0 0 0 0 0 0 0 0 
0 0 0 0 0 0 0 0 0 
0 0 0 0 0 0 0 0 0 
0 0 0 0 0 0 0 0 0 
0 0 0 0 0 0 0 0 0 
0 0 0 0 0 0 0 0 0 
0 0 0 0 0 0 0 0 0 
0 0 0 0 0 0 0 0 0 
0 0 0 0 0 0 0 0 0 
0 0 0 0 0 0 0 0 0 
0 0 0 0 0 0 0 0 0 
0 0 0 0 0 0 0 0 0 
0 0 0 0 0 0 0 0 0 
0 0 0 0 0 0 0 0 0 
0 0 0 0 0 0 0 0 0 
0 0 0 0 0 0 0 0 0 
0 0 0 0 0 0 0 0 0 
0 0 0 0 0 0 0 0 0 
0 0 0 0 0 0 0 0 0 
0 0 0 0 0 0 0 0 0 
0 0 0 0 0 0 0 0 0 
0 0 0 0 0 0 0 0 0 
0 0 0 0 0 0 0 0 0 
0 0 0 0 0 0 0 0 0 
0 0 0 0 0 0 0 0 0 
0 0 0 0 0 0 0 0 0 
0 0 0 0 0 0 0 0 0 
0 0 0 0 0 0 0 0 0 
0 0 0 0 0 0 0 0 0 
0 0 0 0 0 0 0 0 0 
0 0 0 0 0 0 0 0 0 
0 0 0 0 0 0 0 0 0 
0 0 0 0 0 0 0 0 0 
0 0 0 0 0 0 0 0 0 
0 0 0 0 0 0 0 0 0 
0 0 0 0 0 0 0 0 0 
0 0 0 0 0 0 0 0 0 
0 0 0 0 0 0 0 0 0 
0 0 0 0 0 0 0 0 0 
0 0 0 0 0 0 0 0 0 
0 0 0 0 0 0 0 0 0 
0 0 0 0 0 0 0 0 0 
0 0 0 0 0 0 0 0 0 
0 0 0 0 0 0 0 0 0 
0 0 0 0 0 0 0 0 0 
0 0 0 0 0 0 0 0 0 
0 0 0 0 0 0 0 0 0 
0 0 0 0 0 0 0 0 0 
0 0 0 0 0 0 0 0 0 
0 0 0 0 0 0 0 0 0 
0 0 0 0 0 0 0 0 0 
0 0 0 0 0 0 0 0 0 
0 0 0 0 0 0 0 0 0 
0 0 0 0 0 0 0 0 0 
0 0 0 0 0 0 0 0 0 
0 0 0 0 0 0 0 0 0 
0 0 0 0 0 0 0 0 0 
0 0 0 0 0 0 0 0 0 
0 0 0 0 0 0 0 0 0 
0 0 0 0 0 0 0 0 0 
0 0 0 0 0 0 0 0 0 
0 0 0 0 0 0 0 0 0 
0 0 0 0 0 0 0 0 0 
0 0 0 0 0 0 0 0 0 
0 0 0 0 0 0 0 0 0 
0 0 0 0 0 0 0 0 0 
0 0 0 0 0 0 0 0 0 
0 0 0 0 0 0 0 0 0 
0 0 0 0 0 0 0 0 0 
0 0 0 0 0 0 0 0 0 
0 0 0 0 0 0 0 0 0 
0 0 0 0 0 0 0 0 0 
0 0 0 0 0 0 0 0 0 
0 0 0 0 0 0 0 0 0 
0 0 0 0 0 0 0 0 0 
0 0 0 0 0 0 0 0 0 
0 0 0 0 0 0 0 0 0 
0 0 0 0 0 0 0 0 0 
0 0 0 0 0 0 0 0 0 
0 0 0 0 0 0 0 0 0 
0 0 0 0 0 0 0 0 0 
0 0 0 0 0 0 0 0 0 
0 0 0 0 0 0 0 0 0 
0 0 0 0 0 0 0 0 0 
0 0 0 0 0 0 0 0 0 
0 0 0 0 0 0 0 0 0 
0 0 0 0 0 0 0 0 0 
0 0 0 0 0 0 0 0 0 
0 0 0 0 0 0 0 0 0 
0 0 0 0 0 0 0 0 0 
0 0 0 0 0 0 0 0 0 
0 0 0 0 0 0 0 0 0 
0 0 0 0 0 0 0 0 0 
0 0 0 0 0 0 0 0 0 
0 0 0 0 0 0 0 0 0 
0 0 0 0 0 0 0 0 0 
0 0 0 0 0 0 0 0 0 
0 0 0 0 0 0 0 0 0 
0 0 0 0 0 0 0 0 0 
0 0 0 0 0 0 0 0 0 
0 0 0 0 0 0 0 0 0 
0 0 0 0 0 0 0 0 0 
0 0 0 0 0 0 0 0 0 
0 0 0 0 0 0 0 0 0 
0 0 0 0 0 0 0 0 0 
0 0 0 0 0 0 0 0 0 
0 0 0 0 0 0 0 0 0 
0 0 0 0 0 0 0 0 0 
0 0 0 0 0 0 0 0 0 
0 0 0 0 0 0 0 0 0 
0 0 0 0 0 0 0 0 0 
0 0 0 0 0 0 0 0 0 
0 0 0 0 0 0 0 0 0 
0 0 0 0 0 0 0 0 0 
0 0 0 0 0 0 0 0 0 
0 0 0 0 0 0 0 0 0 
0 0 0 0 0 0 0 0 0 
0 0 0 0 0 0 0 0 0 
0 0 0 0 0 0 0 0 0 
0 0 0 0 0 0 0 0 0 
0 0 0 0 0 0 0 0 0 
0 0 0 0 0 0 0 0 0 
0 0 0 0 0 0 0 0 0 
0 0 0 0 0 0 0 0 0 
0 0 0 0 0 0 0 0 0 
0 0 0 0 0 0 0 0 0 
0 0 0 0 0 0 0 0 0 
0 0 0 0 0 0 0 0 0 
0 0 0 0 0 0 0 0 0 
0 0 0 0 0 0 0 0 0 
0 0 0 0 0 0 0 0 0 
0 0 0 0 0 0 0 0 0 
0 0 0 0 0 0 0 0 0 
0 0 0 0 0 0 0 0 0 
0 0 0 0 0 0 0 0 0 
0 0 0 0 0 0 0 0 0 
0 0 0 0 0 0 0 0 0 
0 0 0 0 0 0 0 0 0 
0 0 0 0 0 0 0 
il1 1 2500 double
1.0571071271e-17 4.3330351582e-16 1.5113181973e-14 4.4751767396e-13 1.0881350508e-11 2.0749871266e-10 2.505312402e-09 1.5507287898e-08 3.6075522569e-09 
5.5074328431e-10 1.1722018911e-09 1.7615123249e-10 2.7338806566e-11 3.023828965e-10 9.860882777e-09 2.9096494814e-07 2.456410364e-08 1.0767849545e-07 
1.8092658038e-08 1.5768451433e-08 2.331310478e-09 1.8300498617e-10 1.7155166177e-11 1.1704111291e-10 9.4176899612e-10 3.0464705758e-10 2.3944808358e-09 
1.5651428598e-08 2.3382225045e-09 3.5308114765e-10 2.3043509323e-09 1.5850718071e-08 1.8182635841e-08 1.1231312413e-07 1.5953240506e-08 1.1595135962e-09 
1.3217818506e-10 7.7176948166e-10 3.7779487871e-10 3.2203284484e-09 1.5044562929e-08 2.1788453264e-09 1.7872410496e-10 2.6620911031e-10 3.2396478833e-09 
3.1090728214e-08 1.1926501031e-07 1.6201980202e-08 1.1279939205e-09 5.5077772204e-11 6.7127797821e-17 2.7663763597e-15 9.6759297623e-14 2.8569696522e-12 
6.8421705801e-11 1.2477063827e-09 1.544101913e-08 9.8502361823e-08 2.9184398898e-08 5.5400195542e-09 1.5108048146e-08 2.2399020416e-09 3.2272903794e-10 
2.0478849727e-09 1.4112673696e-08 1.0793841376e-08 2.6874009684e-09 1.5885133209e-08 1.5797478881e-08 8.8081968386e-08 1.3544653399e-08 1.0692585706e-09 
1.6838926087e-10 1.7870566138e-09 1.4563958928e-08 3.1434996828e-09 1.660680482e-08 1.0684999552e-07 1.5494553196e-08 2.1946937601e-09 1.3728550741e-08 
9.0911079553e-08 1.5812243959e-08 1.5998288916e-08 2.2066015681e-09 2.3792848247e-10 1.520444215e-09 1.5638413231e-08 4.5633674617e-09 2.9207136265e-08 
9.8731604226e-08 1.4046503516e-08 1.2287946216e-09 2.0824748592e-09 1.4360436396e-08 1.0358618141e-07 2.9609960706e-08 3.1184428373e-09 1.9651490157e-10 
9.1276309427e-12 4.6269783549e-17 2.0321264846e-15 7.7161719939e-14 2.5094544498e-12 6.7044390872e-11 1.3804386523e-09 1.9558973108e-08 1.4672104953e-07 
1.1730978144e-07 3.1225454222e-08 1.1589482085e-07 1.6186859852e-08 2.2277009126e-09 1.3889319916e-08 9.5107431264e-08 1.3977999203e-08 1.2162975072e-09 
1.4884473654e-09 3.5098377538e-09 1.4799460324e-08 2.294542778e-09 2.6966595623e-10 9.1798990631e-10 1.4577206997e-08 1.2038424302e-07 1.870740185e-08 
3.1153465585e-08 1.4094973722e-07 1.6767865318e-08 1.2564037588e-09 2.2911683661e-09 1.4708715135e-08 2.3927069215e-09 1.2330156896e-09 1.9885586233e-10 
8.9104940093e-10 1.6528463931e-08 1.719904219e-07 3.2844805986e-08 1.2499153001e-07 3.0148012087e-08 3.2822091711e-09 2.3100796831e-09 1.3928601383e-08 
4.0643808319e-09 1.5296670597e-08 1.6425701688e-08 1.2789941328e-09 5.8063873154e-11 2.241772306e-12 1.392973078e-16 4.6267357858e-15 1.3675710141e-13 
3.5441320018e-12 7.6669413873e-11 1.299833241e-09 1.5609439075e-08 1.0684151874e-07 3.3212594985e-07 3.609126864e-08 4.1691041019e-07 2.5761190514e-08 
1.5785165397e-09 2.1000099437e-09 1.3831191303e-08 2.0477000096e-09 3.4321095965e-10 2.3749451294e-09 1.5783925278e-08 1.7956830689e-08 2.7165891758e-09 
1.2278223993e-09 3.8956365911e-10 3.7329557223e-09 3.2060977873e-08 3.0910463522e-08 9.1927979895e-08 2.9252969824e-08 3.1130906741e-09 1.4061026787e-09 
2.4127633225e-09 1.4710081153e-08 2.2498696239e-09 2.3671734017e-10 2.0401494383e-10 2.071392613e-09 1.5240631868e-08 1.0765775471e-07 3.1008674739e-08 
1.1529224508e-07 1.7031389632e-08 2.4775426155e-09 1.4923989156e-08 9.3779895849e-08 1.4398589876e-08 1.5458715197e-08 1.951420785e-07 1.4420883154e-08 
6.140518094e-10 2.5077486962e-11 1.734565822e-15 4.0493538291e-14 8.2618352264e-13 1.4216820429e-11 1.8041265704e-10 1.2619101319e-09 2.6037159095e-09 
1.6534546177e-08 2.5755550581e-08 1.8645197386e-08 1.194846817e-07 1.6924484925e-08 1.1930101351e-09 2.1130901195e-10 1.0363188085e-09 2.615209993e-10 
1.1544052381e-09 1.4588660058e-08 1.0084031032e-07 1.1934189104e-07 1.8903000054e-08 1.5125539932e-08 3.0283797692e-09 1.5805127873e-08 1.379095238e-07 
1.103093723e-07 2.8283789533e-08 4.2531560496e-09 2.4892718997e-09 1.4583764418e-08 1.5769396455e-08 9.0932850583e-08 1.3737676774e-08 1.1924143895e-09 
1.9804680118e-09 1.4356350775e-08 4.0624792419e-09 1.4814757421e-08 5.2772799464e-09 1.5605504444e-08 2.3804727078e-09 2.5331567954e-09 1.689523188e-08 
1.6042532636e-08 2.2880235484e-09 1.456884946e-09 1.6287183158e-08 1.644132297e-08 2.0121544431e-09 2.1782699255e-10 3.5876703897e-14 6.6268160664e-13 
1.1089174717e-11 1.7011501929e-10 2.1187525068e-09 1.3507919228e-08 3.237490942e-09 1.5638926598e-08 1.1219576379e-07 1.6521958912e-08 1.6645854473e-08 
3.7088173599e-07 8.1597384405e-10 2.7530049421e-11 1.9603411949e-10 1.0216938406e-09 3.7966460531e-10 3.3464522264e-09 2.9144894498e-08 1.0750649437e-07 
2.971023072e-08 9.6319126897e-08 1.4004695181e-08 2.9204512142e-09 1.6648549206e-08 1.5677516174e-08 3.2761915403e-09 1.4242871327e-09 1.3552632794e-08 
8.7971358198e-08 1.5784497265e-08 1.5962875466e-08 3.4271829819e-09 1.3151307821e-09 1.4216356981e-08 1.0643617543e-07 1.4499937251e-08 4.0585628192e-09 
1.4961852202e-08 1.5160962263e-08 2.1632120539e-09 1.5935203379e-08 1.0742813572e-07 1.7978003086e-08 1.8218431208e-09 3.8854435225e-09 3.0451790423e-08 
4.6732230885e-07 1.5696445033e-08 2.3592567899e-09 6.7542521055e-13 9.8158261033e-12 1.075592046e-10 1.0752623236e-09 1.3454344305e-08 8.6413095346e-08 
1.3586132219e-08 3.0259483808e-09 1.4889329769e-08 2.056552928e-09 1.1961374113e-09 8.1533924057e-10 2.1348534052e-11 1.451220949e-10 1.9957042685e-09 
1.4046044328e-08 2.0169490522e-09 4.9052029105e-10 3.3239082597e-09 1.5011099919e-08 4.2834416014e-09 1.4002491611e-08 2.0501309539e-09 2.7047444839e-10 
1.0357104063e-09 1.1476307682e-09 2.2722927706e-10 1.8958569437e-10 2.1160229124e-09 1.3714932301e-08 4.5778465463e-09 1.665758731e-08 1.570022512e-08 
2.4498840734e-09 2.101679053e-09 1.4252268699e-08 2.9429025883e-09 1.4467295806e-08 1.1035682235e-07 2.4119242426e-07 1.4375379997e-08 1.6120875301e-08 
1.0368608372e-07 2.9435760496e-08 6.2107954335e-09 2.8812623398e-08 1.2312825959e-07 3.0174643229e-08 5.3521693744e-09 1.6746401599e-08 1.1789741926e-11 
1.4998237374e-10 1.0268470518e-09 3.2997690691e-10 2.1904111858e-09 1.3514735109e-08 2.1703321362e-09 1.2751709688e-09 1.4472946397e-08 1.1103334918e-09 
9.6906829783e-11 1.2014353054e-11 4.9494502247e-11 1.0111201876e-09 1.4141950722e-08 1.0079534718e-07 1.414337536e-08 1.0338377932e-09 2.7698637828e-10 
1.1230901764e-09 3.2263089422e-10 1.0379714865e-09 1.5348941562e-10 1.6942145603e-11 4.6350381866e-11 5.7455651348e-11 1.1340989779e-11 1.6944988815e-11 
2.2852882087e-10 2.199487481e-09 1.4563878104e-08 9.7145715472e-08 9.8366044199e-08 1.4504855983e-08 1.269437333e-09 1.041567832e-09 3.4396122062e-10 
2.1850521392e-09 1.6586776397e-08 2.8002540731e-08 3.0249562855e-09 3.496771761e-09 2.8347320935e-08 9.3519993527e-08 2.80733925e-08 1.0265864603e-07 
2.8711323097e-08 5.1503215026e-09 1.6847581108e-08 1.1154665458e-07 1.5706715095e-10 2.0199770745e-09 1.390591553e-08 2.2513899633e-09 1.5333745385e-09 
2.2887429729e-09 8.3181728172e-10 1.3559696477e-08 1.9157151598e-07 1.3533242083e-08 4.9279164083e-10 1.2994754578e-11 1.45330371e-11 2.9028876525e-10 
3.9892347203e-09 2.7937211655e-08 3.9893031101e-09 2.9137281476e-10 2.5468509246e-11 5.7864876085e-11 1.6540333339e-11 5.2048643173e-11 8.5221048968e-12 
9.950236815e-12 5.8654144042e-11 1.1409415079e-11 1.2088611362e-12 1.2255334551e-12 1.9048070413e-11 2.4112131736e-10 2.3224129286e-09 1.5451753654e-08 
1.561836882e-08 3.1281799373e-09 2.9558078207e-10 2.2601220895e-10 1.1199727812e-09 1.3119122455e-09 1.5035558576e-08 1.0026425912e-07 1.4055698827e-08 
1.4994201436e-09 5.3361985941e-09 2.778243946e-08 7.1483885478e-09 1.4573068974e-08 3.1359972397e-09 8.2011624158e-09 1.8411576264e-08 1.2607841882e-07 
1.0678645745e-09 1.3905703256e-08 9.6940894423e-08 1.7104351713e-08 1.6926168911e-08 1.5912226203e-08 2.2729766957e-09 1.1470564498e-09 1.3539003696e-08 
9.7983055003e-10 3.6512775442e-11 2.7919608899e-12 4.9922593837e-11 1.0193532685e-09 1.4088181288e-08 9.9220024197e-08 1.4088183065e-08 1.0193865752e-09 
5.0280522801e-11 4.090160502e-12 7.3130043687e-13 2.7337652541e-12 1.4060722205e-11 1.6978868311e-10 1.0676504125e-09 1.7153760357e-10 1.4100233134e-11 