# vtk DataFile Version 5.1
vtk output
ASCII
DATASET STRUCTURED_POINTS
DIMENSIONS 50 50 1
SPACING 1 1 1
ORIGIN 0 0 0
POINT_DATA 2500
FIELD FieldData 10
CellType 1 2500 char
0 0 0 0 0 0 0 0 0 
0 0 0 0 0 0 0 0 3 
3 0 0 0 0 3 3 0 0 
0 0 0 0 0 0 0 0 0 
0 0 0 0 0 0 0 0 3 
0 0 0 0 0 0 0 0 0 
0 0 0 7 0 0 0 0 0 
0 0 0 0 0 0 0 0 0 
0 0 0 0 0 0 0 0 0 
0 7 0 0 0 0 0 0 0 
0 0 0 0 0 7 0 0 0 
0 0 3 0 0 0 0 0 0 
0 0 0 0 0 0 0 0 2 
2 0 0 0 0 0 0 0 0 
0 0 0 0 0 0 0 0 0 
0 0 0 0 3 0 0 0 0 
0 0 0 0 0 0 0 0 0 
0 0 0 0 0 0 0 0 0 
0 0 0 0 0 0 0 0 0 
0 0 2 0 0 0 0 0 0 
0 0 0 0 0 0 0 0 0 
3 0 0 0 0 0 0 0 0 
2 0 0 0 0 0 0 0 0 
3 0 0 0 0 0 0 7 0 
0 0 0 0 7 0 0 0 0 
0 0 0 0 0 7 0 0 4 
0 0 0 0 0 0 0 0 0 
0 0 0 0 0 0 0 0 0 
0 0 0 0 0 3 0 0 10 
0 0 0 0 0 3 0 0 0 
0 0 0 0 0 0 0 10 0 
0 7 0 7 0 0 0 0 0 
0 0 0 0 0 0 0 0 0 
0 0 0 0 0 0 0 0 0 
0 0 0 0 0 0 0 0 0 
0 0 0 0 0 0 0 0 0 
0 0 3 0 0 0 0 0 0 
0 0 0 0 0 0 7 0 0 
0 0 0 0 2 0 0 0 0 
0 0 0 0 0 0 0 0 0 
0 0 0 0 0 0 0 0 0 
0 0 0 1 0 0 0 0 0 
0 0 0 0 0 0 0 0 0 
0 0 0 0 0 0 0 0 0 
0 0 0 0 0 0 4 0 0 
0 0 0 1 0 0 0 0 0 
0 0 0 0 2 0 0 0 1 
0 0 0 0 0 0 1 0 0 
0 0 0 1 0 0 0 0 0 
0 0 0 0 0 0 0 3 0 
0 0 0 0 0 0 0 0 0 
0 0 0 1 0 7 0 0 0 
0 0 0 0 0 0 0 0 0 
0 0 0 0 0 0 0 0 0 
0 0 0 1 0 0 0 0 0 
0 0 0 0 0 0 0 0 0 
0 0 0 0 0 0 0 1 0 
0 0 0 0 0 0 0 0 0 
0 4 0 0 5 0 0 0 1 
1 0 0 0 0 0 0 0 0 
0 0 0 0 0 0 0 0 0 
0 4 0 0 0 0 0 0 0 
0 0 0 0 0 0 0 1 0 
0 1 0 0 0 0 0 0 0 
0 0 0 0 0 0 0 0 0 
0 2 0 0 0 0 0 0 0 
0 0 2 0 0 0 0 0 3 
0 0 0 0 0 0 0 0 0 
0 0 0 0 0 0 0 0 0 
0 0 0 0 0 0 0 0 1 
0 0 0 0 0 0 0 0 0 
1 0 1 0 0 0 0 0 0 
0 0 0 0 0 0 0 0 0 
0 0 0 0 1 0 0 0 0 
1 0 0 0 0 0 0 0 0 
7 0 0 0 0 4 0 0 1 
0 0 0 0 0 7 0 0 0 
0 0 3 0 0 0 0 7 7 
0 0 0 0 0 0 0 0 0 
0 0 0 0 1 5 1 0 0 
2 0 1 0 2 0 0 0 0 
0 0 0 0 0 0 0 0 0 
0 0 0 0 0 0 0 0 0 
0 0 0 0 0 0 0 0 0 
0 0 0 0 7 1 0 0 0 
0 0 0 0 1 0 0 0 0 
0 0 0 0 0 0 0 0 0 
0 0 0 0 0 0 0 0 0 
0 0 0 0 0 0 0 0 0 
0 0 0 5 0 0 0 0 0 
1 0 0 0 0 0 0 0 0 
0 0 0 0 0 0 0 0 0 
0 4 3 0 0 0 0 1 1 
0 0 0 0 0 0 0 0 0 
0 0 0 0 0 0 0 0 0 
0 0 0 0 0 0 0 0 0 
0 0 0 0 0 1 0 8 0 
0 0 0 0 0 0 0 0 0 
0 0 0 0 0 0 0 0 0 
0 0 0 0 0 0 0 0 3 
0 0 0 0 0 0 0 0 1 
3 0 0 0 0 5 0 0 0 
0 0 0 0 0 1 0 3 0 
0 0 0 0 0 0 0 1 0 
0 0 0 0 0 0 0 0 0 
7 0 0 0 0 0 0 0 2 
8 0 0 0 0 0 0 0 0 
0 0 0 0 0 0 1 0 0 
0 0 0 1 0 0 2 0 0 
1 0 0 0 0 5 0 0 0 
0 0 0 0 0 0 0 0 0 
0 0 0 0 0 0 0 0 0 
0 0 0 0 0 0 0 0 0 
0 0 1 1 0 0 0 0 0 
0 1 0 0 0 0 0 0 0 
0 0 0 0 0 0 0 0 0 
0 3 0 0 0 0 0 0 0 
0 0 0 0 0 0 0 0 0 
0 0 0 0 1 0 0 0 0 
0 0 0 0 0 0 0 0 0 
0 0 0 0 0 0 0 0 0 
0 0 0 0 0 0 0 0 0 
3 0 0 0 0 0 0 0 0 
0 0 3 0 3 0 0 0 0 
0 0 0 0 0 0 0 0 0 
0 1 0 0 0 0 0 0 0 
0 0 1 0 0 0 0 0 2 
0 0 0 0 0 0 0 0 0 
2 0 2 0 0 0 0 0 0 
0 0 0 0 0 0 0 0 0 
0 0 0 3 0 0 0 1 0 
5 0 0 0 0 0 0 1 0 
0 0 1 0 0 0 0 0 0 
0 0 0 0 0 0 0 0 0 
0 0 0 0 0 0 0 1 0 
0 0 0 1 0 0 7 0 0 
0 1 1 0 0 0 0 0 0 
0 0 0 0 0 0 0 0 0 
0 0 0 0 0 0 3 0 0 
0 0 0 0 0 0 0 0 0 
0 0 0 0 0 0 0 0 0 
0 0 0 0 0 0 0 0 0 
0 0 0 0 0 0 0 1 0 
0 0 1 0 0 3 0 0 0 
0 0 0 0 0 0 0 0 0 
0 0 0 0 0 0 0 0 0 
0 0 0 0 1 0 0 0 0 
1 0 0 0 0 0 4 0 0 
5 0 0 0 0 0 1 1 0 
0 0 0 0 0 0 0 0 0 
7 0 0 0 0 2 0 1 0 
0 0 0 0 1 0 0 0 0 
0 0 0 0 0 0 1 0 0 
1 0 0 0 0 0 0 0 0 
1 0 0 0 0 0 0 0 0 
0 0 0 0 0 0 0 0 0 
0 0 0 0 0 0 0 0 0 
0 0 0 0 0 0 0 0 0 
0 0 0 0 0 0 0 0 3 
0 0 0 0 0 0 0 0 1 
0 0 0 0 0 0 0 0 0 
0 0 0 0 0 0 0 0 0 
0 0 0 0 0 0 0 0 0 
0 0 3 0 0 0 0 4 0 
0 0 1 0 0 0 0 1 0 
0 0 0 1 0 0 0 1 0 
0 0 0 0 0 0 0 0 0 
0 0 0 0 0 0 2 0 0 
0 0 0 2 0 0 0 0 0 
0 0 0 0 0 0 0 0 0 
0 0 0 0 0 0 0 0 0 
0 0 0 0 0 0 0 0 0 
0 3 0 0 0 0 0 0 0 
0 0 0 0 0 0 0 0 1 
0 0 0 0 0 1 0 0 0 
0 0 0 1 0 0 0 0 0 
0 0 0 0 0 0 0 0 0 
0 0 0 0 0 0 0 0 0 
0 0 0 0 0 0 0 0 0 
1 0 0 0 0 0 1 1 0 
0 0 0 1 7 0 0 0 0 
0 0 0 0 0 0 0 0 0 
0 0 0 0 0 0 0 0 0 
0 0 0 0 0 0 7 0 0 
0 0 0 0 0 1 0 0 0 
0 0 0 0 0 0 1 0 0 
0 0 3 0 0 0 1 0 0 
0 0 0 0 0 0 0 0 1 
0 0 0 0 0 4 0 0 0 
0 0 0 0 0 0 0 3 0 
0 0 1 0 0 0 0 0 0 
0 1 0 0 1 0 0 0 0 
0 0 0 0 0 0 0 0 0 
0 0 0 0 0 0 0 3 0 
0 0 0 0 2 0 0 0 0 
0 0 0 0 0 0 0 0 0 
0 0 2 0 1 0 0 0 0 
0 0 0 0 0 1 0 0 0 
0 0 0 0 0 0 0 5 1 
1 0 0 0 0 0 0 0 0 
0 0 3 0 0 0 0 0 0 
0 0 0 0 0 0 0 0 0 
0 1 0 0 0 0 0 0 0 
0 0 0 0 0 0 0 0 0 
0 0 0 0 0 0 0 0 0 
0 0 3 0 0 0 2 0 0 
0 0 0 0 0 0 0 1 0 
0 0 0 0 0 1 2 1 0 
0 1 0 0 0 0 0 0 0 
0 0 1 0 0 0 0 0 0 
0 1 0 0 0 0 0 0 0 
0 0 0 0 0 0 0 0 0 
0 0 0 0 0 0 0 0 0 
0 0 0 0 0 0 0 0 0 
0 0 0 0 0 0 1 0 0 
0 0 0 0 0 0 0 0 0 
0 0 0 0 0 0 0 0 0 
0 0 0 0 0 0 0 7 0 
1 0 0 0 0 0 0 0 0 
0 0 0 0 0 0 0 3 0 
0 3 0 0 0 0 0 0 0 
0 1 0 0 0 0 0 0 0 
0 0 0 0 0 0 0 0 0 
0 0 0 1 0 0 0 0 0 
0 0 0 0 7 7 0 0 0 
0 0 1 0 0 0 0 0 1 
0 0 0 0 2 0 0 0 0 
0 0 0 7 0 0 0 0 0 
0 0 0 0 0 0 0 0 0 
0 0 0 0 0 0 0 0 2 
0 0 0 0 0 0 0 0 0 
0 0 0 0 0 10 2 0 0 
0 0 0 0 1 0 3 0 0 
0 0 0 0 0 0 0 0 0 
0 0 0 0 0 0 0 0 0 
0 0 0 0 0 0 0 0 0 
0 0 0 0 0 0 10 0 0 
0 0 0 0 0 2 0 1 0 
0 0 0 0 0 0 0 0 0 
0 0 0 0 0 0 0 0 0 
0 0 0 0 0 0 0 0 0 
3 0 0 0 0 3 0 0 2 
0 0 0 0 0 0 0 0 0 
0 0 0 0 0 0 0 0 0 
0 0 0 0 0 0 2 2 0 
3 0 0 0 0 0 0 0 0 
0 0 0 0 0 0 0 0 0 
0 0 0 0 0 0 0 0 0 
0 0 0 0 0 0 0 0 0 
0 0 0 0 0 0 0 0 0 
0 0 2 0 0 0 0 0 0 
0 2 0 0 0 0 0 0 0 
0 0 0 0 0 0 0 0 0 
0 0 0 0 0 0 0 0 0 
0 0 0 0 0 0 0 0 0 
0 0 0 0 0 0 0 0 0 
0 0 0 0 0 0 0 0 7 
0 0 0 0 0 0 0 0 0 
0 0 0 0 0 0 0 0 0 
0 0 0 0 0 0 0 0 0 
0 0 0 0 0 0 0 3 0 
0 0 0 0 0 0 7 0 0 
0 0 0 0 0 0 0 0 0 
0 0 0 3 0 0 0 10 0 
0 0 0 0 0 0 0 0 0 
0 0 0 0 0 0 0 0 0 
0 0 0 0 0 0 0 2 0 
0 0 0 0 0 0 0 0 0 
0 0 0 0 0 0 0 0 0 
0 0 0 0 0 0 0 0 0 
0 0 0 0 0 0 0 0 0 
0 0 0 0 0 0 0 0 0 
0 0 3 0 0 0 0 0 0 
0 0 0 0 0 0 0 0 0 
0 0 0 0 0 0 0 4 0 
0 3 0 5 0 0 0 0 0 
0 0 3 0 0 2 0 0 0 
0 3 0 0 0 0 0 
CellId 1 2500 long
0 0 0 0 0 0 0 0 0 
0 0 0 0 0 0 0 0 266 
266 0 0 0 0 327 327 0 0 
0 0 0 0 0 0 0 0 0 
0 0 0 0 0 0 0 0 287 
0 0 0 0 0 0 0 0 0 
0 0 0 268 0 0 0 0 0 
0 0 0 0 0 0 0 0 0 
0 0 0 0 0 0 0 0 0 
0 264 0 0 0 0 0 0 0 
0 0 0 0 0 322 0 0 0 
0 0 244 0 0 0 0 0 0 
0 0 0 0 0 0 0 0 196 
121 0 0 0 0 0 0 0 0 
0 0 0 0 0 0 0 0 0 
0 0 0 0 275 0 0 0 0 
0 0 0 0 0 0 0 0 0 
0 0 0 0 0 0 0 0 0 
0 0 0 0 0 0 0 0 0 
0 0 151 0 0 0 0 0 0 
0 0 0 0 0 0 0 0 0 
230 0 0 0 0 0 0 0 0 
133 0 0 0 0 0 0 0 0 
233 0 0 0 0 0 0 330 0 
0 0 0 0 245 0 0 0 0 
0 0 0 0 0 279 0 0 214 
0 0 0 0 0 0 0 0 0 
0 0 0 0 0 0 0 0 0 
0 0 0 0 0 318 0 0 326 
0 0 0 0 0 273 0 0 0 
0 0 0 0 0 0 0 220 0 
0 279 0 321 0 0 0 0 0 
0 0 0 0 0 0 0 0 0 
0 0 0 0 0 0 0 0 0 
0 0 0 0 0 0 0 0 0 
0 0 0 0 0 0 0 0 0 
0 0 320 0 0 0 0 0 0 
0 0 0 0 0 0 251 0 0 
0 0 0 0 138 0 0 0 0 
0 0 0 0 0 0 0 0 0 
0 0 0 0 0 0 0 0 0 
0 0 0 77 0 0 0 0 0 
0 0 0 0 0 0 0 0 0 
0 0 0 0 0 0 0 0 0 
0 0 0 0 0 0 213 0 0 
0 0 0 63 0 0 0 0 0 
0 0 0 0 171 0 0 0 78 
0 0 0 0 0 0 43 0 0 
0 0 0 11 0 0 0 0 0 
0 0 0 0 0 0 0 310 0 
0 0 0 0 0 0 0 0 0 
0 0 0 62 0 260 0 0 0 
0 0 0 0 0 0 0 0 0 
0 0 0 0 0 0 0 0 0 
0 0 0 71 0 0 0 0 0 
0 0 0 0 0 0 0 0 0 
0 0 0 0 0 0 0 38 0 
0 0 0 0 0 0 0 0 0 
0 215 0 0 169 0 0 0 67 
100 0 0 0 0 0 0 0 0 
0 0 0 0 0 0 0 0 0 
0 216 0 0 0 0 0 0 0 
0 0 0 0 0 0 0 96 0 
0 25 0 0 0 0 0 0 0 
0 0 0 0 0 0 0 0 0 
0 126 0 0 0 0 0 0 0 
0 0 156 0 0 0 0 0 329 
0 0 0 0 0 0 0 0 0 
0 0 0 0 0 0 0 0 0 
0 0 0 0 0 0 0 0 68 
0 0 0 0 0 0 0 0 0 
31 0 7 0 0 0 0 0 0 
0 0 0 0 0 0 0 0 0 
0 0 0 0 69 0 0 0 0 
22 0 0 0 0 0 0 0 0 
238 0 0 0 0 212 0 0 33 
0 0 0 0 0 315 0 0 0 
0 0 316 0 0 0 0 312 274 
0 0 0 0 0 0 0 0 0 
0 0 0 0 8 207 61 0 0 
112 0 60 0 187 0 0 0 0 
0 0 0 0 0 0 0 0 0 
0 0 0 0 0 0 0 0 0 
0 0 0 0 0 0 0 0 0 
0 0 0 0 323 23 0 0 0 
0 0 0 0 85 0 0 0 0 
0 0 0 0 0 0 0 0 0 
0 0 0 0 0 0 0 0 0 
0 0 0 0 0 0 0 0 0 
0 0 0 181 0 0 0 0 0 
5 0 0 0 0 0 0 0 0 
0 0 0 0 0 0 0 0 0 
0 325 301 0 0 0 0 86 53 
0 0 0 0 0 0 0 0 0 
0 0 0 0 0 0 0 0 0 
0 0 0 0 0 0 0 0 0 
0 0 0 0 0 72 0 317 0 
0 0 0 0 0 0 0 0 0 
0 0 0 0 0 0 0 0 0 
0 0 0 0 0 0 0 0 314 
0 0 0 0 0 0 0 0 59 
298 0 0 0 0 154 0 0 0 
0 0 0 0 0 97 0 332 0 
0 0 0 0 0 0 0 51 0 
0 0 0 0 0 0 0 0 0 
311 0 0 0 0 0 0 0 143 
291 0 0 0 0 0 0 0 0 
0 0 0 0 0 0 54 0 0 
0 0 0 70 0 0 186 0 0 
3 0 0 0 0 136 0 0 0 
0 0 0 0 0 0 0 0 0 
0 0 0 0 0 0 0 0 0 
0 0 0 0 0 0 0 0 0 
0 0 42 57 0 0 0 0 0 
0 76 0 0 0 0 0 0 0 
0 0 0 0 0 0 0 0 0 
0 267 0 0 0 0 0 0 0 
0 0 0 0 0 0 0 0 0 
0 0 0 0 66 0 0 0 0 
0 0 0 0 0 0 0 0 0 
0 0 0 0 0 0 0 0 0 
0 0 0 0 0 0 0 0 0 
328 0 0 0 0 0 0 0 0 
0 0 288 0 280 0 0 0 0 
0 0 0 0 0 0 0 0 0 
0 84 0 0 0 0 0 0 0 
0 0 40 0 0 0 0 0 198 
0 0 0 0 0 0 0 0 0 
175 0 208 0 0 0 0 0 0 
0 0 0 0 0 0 0 0 0 
0 0 0 295 0 0 0 34 0 
110 0 0 0 0 0 0 88 0 
0 0 82 0 0 0 0 0 0 
0 0 0 0 0 0 0 0 0 
0 0 0 0 0 0 0 44 0 
0 0 0 29 0 0 307 0 0 
0 2 91 0 0 0 0 0 0 
0 0 0 0 0 0 0 0 0 
0 0 0 0 0 0 302 0 0 
0 0 0 0 0 0 0 0 0 
0 0 0 0 0 0 0 0 0 
0 0 0 0 0 0 0 0 0 
0 0 0 0 0 0 0 27 0 
0 0 41 0 0 282 0 0 0 
0 0 0 0 0 0 0 0 0 
0 0 0 0 0 0 0 0 0 
0 0 0 0 98 0 0 0 0 
10 0 0 0 0 0 211 0 0 
140 0 0 0 0 0 4 58 0 
0 0 0 0 0 0 0 0 0 
246 0 0 0 0 200 0 73 0 
0 0 0 0 75 0 0 0 0 
0 0 0 0 0 0 13 0 0 
55 0 0 0 0 0 0 0 0 
32 0 0 0 0 0 0 0 0 
0 0 0 0 0 0 0 0 0 
0 0 0 0 0 0 0 0 0 
0 0 0 0 0 0 0 0 0 
0 0 0 0 0 0 0 0 309 
0 0 0 0 0 0 0 0 49 
0 0 0 0 0 0 0 0 0 
0 0 0 0 0 0 0 0 0 
0 0 0 0 0 0 0 0 0 
0 0 306 0 0 0 0 218 0 
0 0 47 0 0 0 0 89 0 
0 0 0 37 0 0 0 30 0 
0 0 0 0 0 0 0 0 0 
0 0 0 0 0 0 203 0 0 
0 0 0 205 0 0 0 0 0 
0 0 0 0 0 0 0 0 0 
0 0 0 0 0 0 0 0 0 
0 0 0 0 0 0 0 0 0 
0 270 0 0 0 0 0 0 0 
0 0 0 0 0 0 0 0 95 
0 0 0 0 0 90 0 0 0 
0 0 0 48 0 0 0 0 0 
0 0 0 0 0 0 0 0 0 
0 0 0 0 0 0 0 0 0 
0 0 0 0 0 0 0 0 0 
83 0 0 0 0 0 52 87 0 
0 0 0 14 299 0 0 0 0 
0 0 0 0 0 0 0 0 0 
0 0 0 0 0 0 0 0 0 
0 0 0 0 0 0 257 0 0 
0 0 0 0 0 9 0 0 0 
0 0 0 0 0 0 21 0 0 
0 0 292 0 0 0 99 0 0 
0 0 0 0 0 0 0 0 64 
0 0 0 0 0 219 0 0 0 
0 0 0 0 0 0 0 269 0 
0 0 26 0 0 0 0 0 0 
0 80 0 0 45 0 0 0 0 
0 0 0 0 0 0 0 0 0 
0 0 0 0 0 0 0 271 0 
0 0 0 0 199 0 0 0 0 
0 0 0 0 0 0 0 0 0 
0 0 179 0 1 0 0 0 0 
0 0 0 0 0 94 0 0 0 
0 0 0 0 0 0 0 166 93 
35 0 0 0 0 0 0 0 0 
0 0 336 0 0 0 0 0 0 
0 0 0 0 0 0 0 0 0 
0 15 0 0 0 0 0 0 0 
0 0 0 0 0 0 0 0 0 
0 0 0 0 0 0 0 0 0 
0 0 263 0 0 0 209 0 0 
0 0 0 0 0 0 0 39 0 
0 0 0 0 0 19 139 46 0 
0 36 0 0 0 0 0 0 0 
0 0 50 0 0 0 0 0 0 
0 17 0 0 0 0 0 0 0 
0 0 0 0 0 0 0 0 0 
0 0 0 0 0 0 0 0 0 
0 0 0 0 0 0 0 0 0 
0 0 0 0 0 0 18 0 0 
0 0 0 0 0 0 0 0 0 
0 0 0 0 0 0 0 0 0 
0 0 0 0 0 0 0 229 0 
20 0 0 0 0 0 0 0 0 
0 0 0 0 0 0 0 296 0 
0 261 0 0 0 0 0 0 0 
0 24 0 0 0 0 0 0 0 
0 0 0 0 0 0 0 0 0 
0 0 0 74 0 0 0 0 0 
0 0 0 0 303 303 0 0 0 
0 0 6 0 0 0 0 0 56 
0 0 0 0 197 0 0 0 0 
0 0 0 247 0 0 0 0 0 
0 0 0 0 0 0 0 0 0 
0 0 0 0 0 0 0 0 168 
0 0 0 0 0 0 0 0 0 
0 0 0 0 0 223 118 0 0 
0 0 0 0 16 0 293 0 0 
0 0 0 0 0 0 0 0 0 
0 0 0 0 0 0 0 0 0 
0 0 0 0 0 0 0 0 0 
0 0 0 0 0 0 221 0 0 
0 0 0 0 0 184 0 81 0 
0 0 0 0 0 0 0 0 0 
0 0 0 0 0 0 0 0 0 
0 0 0 0 0 0 0 0 0 
239 0 0 0 0 231 0 0 195 
0 0 0 0 0 0 0 0 0 
0 0 0 0 0 0 0 0 0 
0 0 0 0 0 0 125 125 0 
331 0 0 0 0 0 0 0 0 
0 0 0 0 0 0 0 0 0 
0 0 0 0 0 0 0 0 0 
0 0 0 0 0 0 0 0 0 
0 0 0 0 0 0 0 0 0 
0 0 125 0 0 0 0 0 0 
0 202 0 0 0 0 0 0 0 
0 0 0 0 0 0 0 0 0 
0 0 0 0 0 0 0 0 0 
0 0 0 0 0 0 0 0 0 
0 0 0 0 0 0 0 0 0 
0 0 0 0 0 0 0 0 294 
0 0 0 0 0 0 0 0 0 
0 0 0 0 0 0 0 0 0 
0 0 0 0 0 0 0 0 0 
0 0 0 0 0 0 0 285 0 
0 0 0 0 0 0 235 0 0 
0 0 0 0 0 0 0 0 0 
0 0 0 290 0 0 0 222 0 
0 0 0 0 0 0 0 0 0 
0 0 0 0 0 0 0 0 0 
0 0 0 0 0 0 0 147 0 
0 0 0 0 0 0 0 0 0 
0 0 0 0 0 0 0 0 0 
0 0 0 0 0 0 0 0 0 
0 0 0 0 0 0 0 0 0 
0 0 0 0 0 0 0 0 0 
0 0 243 0 0 0 0 0 0 
0 0 0 0 0 0 0 0 0 
0 0 0 0 0 0 0 217 0 
0 281 0 160 0 0 0 0 0 
0 0 283 0 0 170 0 0 0 
0 286 0 0 0 0 0 
ClusterId 1 2500 long
0 0 0 0 0 0 0 0 0 
0 0 0 0 0 0 0 0 266 
266 0 0 0 0 327 327 0 0 
0 0 0 0 0 0 0 0 0 
0 0 0 0 0 0 0 0 287 
0 0 0 0 0 0 0 0 0 
0 0 0 268 0 0 0 0 0 
0 0 0 0 0 0 0 0 0 
0 0 0 0 0 0 0 0 0 
0 264 0 0 0 0 0 0 0 
0 0 0 0 0 322 0 0 0 
0 0 244 0 0 0 0 0 0 
0 0 0 0 0 0 0 0 196 
121 0 0 0 0 0 0 0 0 
0 0 0 0 0 0 0 0 0 
0 0 0 0 275 0 0 0 0 
0 0 0 0 0 0 0 0 0 
0 0 0 0 0 0 0 0 0 
0 0 0 0 0 0 0 0 0 
0 0 151 0 0 0 0 0 0 
0 0 0 0 0 0 0 0 0 
230 0 0 0 0 0 0 0 0 
133 0 0 0 0 0 0 0 0 
233 0 0 0 0 0 0 330 0 
0 0 0 0 245 0 0 0 0 
0 0 0 0 0 279 0 0 214 
0 0 0 0 0 0 0 0 0 
0 0 0 0 0 0 0 0 0 
0 0 0 0 0 318 0 0 326 
0 0 0 0 0 273 0 0 0 
0 0 0 0 0 0 0 220 0 
0 279 0 321 0 0 0 0 0 
0 0 0 0 0 0 0 0 0 
0 0 0 0 0 0 0 0 0 
0 0 0 0 0 0 0 0 0 
0 0 0 0 0 0 0 0 0 
0 0 320 0 0 0 0 0 0 
0 0 0 0 0 0 251 0 0 
0 0 0 0 138 0 0 0 0 
0 0 0 0 0 0 0 0 0 
0 0 0 0 0 0 0 0 0 
0 0 0 77 0 0 0 0 0 
0 0 0 0 0 0 0 0 0 
0 0 0 0 0 0 0 0 0 
0 0 0 0 0 0 213 0 0 
0 0 0 63 0 0 0 0 0 
0 0 0 0 171 0 0 0 78 
0 0 0 0 0 0 43 0 0 
0 0 0 11 0 0 0 0 0 
0 0 0 0 0 0 0 310 0 
0 0 0 0 0 0 0 0 0 
0 0 0 62 0 260 0 0 0 
0 0 0 0 0 0 0 0 0 
0 0 0 0 0 0 0 0 0 
0 0 0 71 0 0 0 0 0 
0 0 0 0 0 0 0 0 0 
0 0 0 0 0 0 0 38 0 
0 0 0 0 0 0 0 0 0 
0 215 0 0 169 0 0 0 67 
100 0 0 0 0 0 0 0 0 
0 0 0 0 0 0 0 0 0 
0 216 0 0 0 0 0 0 0 
0 0 0 0 0 0 0 96 0 
0 25 0 0 0 0 0 0 0 
0 0 0 0 0 0 0 0 0 
0 126 0 0 0 0 0 0 0 
0 0 156 0 0 0 0 0 329 
0 0 0 0 0 0 0 0 0 
0 0 0 0 0 0 0 0 0 
0 0 0 0 0 0 0 0 68 
0 0 0 0 0 0 0 0 0 
31 0 7 0 0 0 0 0 0 
0 0 0 0 0 0 0 0 0 
0 0 0 0 69 0 0 0 0 
22 0 0 0 0 0 0 0 0 
238 0 0 0 0 212 0 0 33 
0 0 0 0 0 315 0 0 0 
0 0 316 0 0 0 0 312 274 
0 0 0 0 0 0 0 0 0 
0 0 0 0 8 207 61 0 0 
112 0 60 0 187 0 0 0 0 
0 0 0 0 0 0 0 0 0 
0 0 0 0 0 0 0 0 0 
0 0 0 0 0 0 0 0 0 
0 0 0 0 323 23 0 0 0 
0 0 0 0 85 0 0 0 0 
0 0 0 0 0 0 0 0 0 
0 0 0 0 0 0 0 0 0 
0 0 0 0 0 0 0 0 0 
0 0 0 181 0 0 0 0 0 
5 0 0 0 0 0 0 0 0 
0 0 0 0 0 0 0 0 0 
0 325 301 0 0 0 0 86 53 
0 0 0 0 0 0 0 0 0 
0 0 0 0 0 0 0 0 0 
0 0 0 0 0 0 0 0 0 
0 0 0 0 0 72 0 317 0 
0 0 0 0 0 0 0 0 0 
0 0 0 0 0 0 0 0 0 
0 0 0 0 0 0 0 0 314 
0 0 0 0 0 0 0 0 59 
298 0 0 0 0 154 0 0 0 
0 0 0 0 0 97 0 332 0 
0 0 0 0 0 0 0 51 0 
0 0 0 0 0 0 0 0 0 
311 0 0 0 0 0 0 0 143 
291 0 0 0 0 0 0 0 0 
0 0 0 0 0 0 54 0 0 
0 0 0 70 0 0 186 0 0 
3 0 0 0 0 136 0 0 0 
0 0 0 0 0 0 0 0 0 
0 0 0 0 0 0 0 0 0 
0 0 0 0 0 0 0 0 0 
0 0 42 57 0 0 0 0 0 
0 76 0 0 0 0 0 0 0 
0 0 0 0 0 0 0 0 0 
0 267 0 0 0 0 0 0 0 
0 0 0 0 0 0 0 0 0 
0 0 0 0 66 0 0 0 0 
0 0 0 0 0 0 0 0 0 
0 0 0 0 0 0 0 0 0 
0 0 0 0 0 0 0 0 0 
328 0 0 0 0 0 0 0 0 
0 0 288 0 280 0 0 0 0 
0 0 0 0 0 0 0 0 0 
0 84 0 0 0 0 0 0 0 
0 0 40 0 0 0 0 0 198 
0 0 0 0 0 0 0 0 0 
175 0 208 0 0 0 0 0 0 
0 0 0 0 0 0 0 0 0 
0 0 0 295 0 0 0 34 0 
110 0 0 0 0 0 0 88 0 
0 0 82 0 0 0 0 0 0 
0 0 0 0 0 0 0 0 0 
0 0 0 0 0 0 0 44 0 
0 0 0 29 0 0 307 0 0 
0 2 91 0 0 0 0 0 0 
0 0 0 0 0 0 0 0 0 
0 0 0 0 0 0 302 0 0 
0 0 0 0 0 0 0 0 0 
0 0 0 0 0 0 0 0 0 
0 0 0 0 0 0 0 0 0 
0 0 0 0 0 0 0 27 0 
0 0 41 0 0 282 0 0 0 
0 0 0 0 0 0 0 0 0 
0 0 0 0 0 0 0 0 0 
0 0 0 0 98 0 0 0 0 
10 0 0 0 0 0 211 0 0 
140 0 0 0 0 0 4 58 0 
0 0 0 0 0 0 0 0 0 
246 0 0 0 0 200 0 73 0 
0 0 0 0 75 0 0 0 0 
0 0 0 0 0 0 13 0 0 
55 0 0 0 0 0 0 0 0 
32 0 0 0 0 0 0 0 0 
0 0 0 0 0 0 0 0 0 
0 0 0 0 0 0 0 0 0 
0 0 0 0 0 0 0 0 0 
0 0 0 0 0 0 0 0 309 
0 0 0 0 0 0 0 0 49 
0 0 0 0 0 0 0 0 0 
0 0 0 0 0 0 0 0 0 
0 0 0 0 0 0 0 0 0 
0 0 306 0 0 0 0 218 0 
0 0 47 0 0 0 0 89 0 
0 0 0 37 0 0 0 30 0 
0 0 0 0 0 0 0 0 0 
0 0 0 0 0 0 203 0 0 
0 0 0 205 0 0 0 0 0 
0 0 0 0 0 0 0 0 0 
0 0 0 0 0 0 0 0 0 
0 0 0 0 0 0 0 0 0 
0 270 0 0 0 0 0 0 0 
0 0 0 0 0 0 0 0 95 
0 0 0 0 0 90 0 0 0 
0 0 0 48 0 0 0 0 0 
0 0 0 0 0 0 0 0 0 
0 0 0 0 0 0 0 0 0 
0 0 0 0 0 0 0 0 0 
83 0 0 0 0 0 52 87 0 
0 0 0 14 299 0 0 0 0 
0 0 0 0 0 0 0 0 0 
0 0 0 0 0 0 0 0 0 
0 0 0 0 0 0 257 0 0 
0 0 0 0 0 9 0 0 0 
0 0 0 0 0 0 21 0 0 
0 0 292 0 0 0 99 0 0 
0 0 0 0 0 0 0 0 64 
0 0 0 0 0 219 0 0 0 
0 0 0 0 0 0 0 269 0 
0 0 26 0 0 0 0 0 0 
0 80 0 0 45 0 0 0 0 
0 0 0 0 0 0 0 0 0 
0 0 0 0 0 0 0 271 0 
0 0 0 0 199 0 0 0 0 
0 0 0 0 0 0 0 0 0 
0 0 179 0 1 0 0 0 0 
0 0 0 0 0 94 0 0 0 
0 0 0 0 0 0 0 166 93 
35 0 0 0 0 0 0 0 0 
0 0 336 0 0 0 0 0 0 
0 0 0 0 0 0 0 0 0 
0 15 0 0 0 0 0 0 0 
0 0 0 0 0 0 0 0 0 
0 0 0 0 0 0 0 0 0 
0 0 263 0 0 0 209 0 0 
0 0 0 0 0 0 0 39 0 
0 0 0 0 0 19 139 46 0 
0 36 0 0 0 0 0 0 0 
0 0 50 0 0 0 0 0 0 
0 17 0 0 0 0 0 0 0 
0 0 0 0 0 0 0 0 0 
0 0 0 0 0 0 0 0 0 
0 0 0 0 0 0 0 0 0 
0 0 0 0 0 0 18 0 0 
0 0 0 0 0 0 0 0 0 
0 0 0 0 0 0 0 0 0 
0 0 0 0 0 0 0 229 0 
20 0 0 0 0 0 0 0 0 
0 0 0 0 0 0 0 296 0 
0 261 0 0 0 0 0 0 0 
0 24 0 0 0 0 0 0 0 
0 0 0 0 0 0 0 0 0 
0 0 0 74 0 0 0 0 0 
0 0 0 0 303 303 0 0 0 
0 0 6 0 0 0 0 0 56 
0 0 0 0 197 0 0 0 0 
0 0 0 247 0 0 0 0 0 
0 0 0 0 0 0 0 0 0 
0 0 0 0 0 0 0 0 168 
0 0 0 0 0 0 0 0 0 
0 0 0 0 0 223 118 0 0 
0 0 0 0 16 0 293 0 0 
0 0 0 0 0 0 0 0 0 
0 0 0 0 0 0 0 0 0 
0 0 0 0 0 0 0 0 0 
0 0 0 0 0 0 221 0 0 
0 0 0 0 0 184 0 81 0 
0 0 0 0 0 0 0 0 0 
0 0 0 0 0 0 0 0 0 
0 0 0 0 0 0 0 0 0 
239 0 0 0 0 231 0 0 195 
0 0 0 0 0 0 0 0 0 
0 0 0 0 0 0 0 0 0 
0 0 0 0 0 0 125 125 0 
331 0 0 0 0 0 0 0 0 
0 0 0 0 0 0 0 0 0 
0 0 0 0 0 0 0 0 0 
0 0 0 0 0 0 0 0 0 
0 0 0 0 0 0 0 0 0 
0 0 125 0 0 0 0 0 0 
0 202 0 0 0 0 0 0 0 
0 0 0 0 0 0 0 0 0 
0 0 0 0 0 0 0 0 0 
0 0 0 0 0 0 0 0 0 
0 0 0 0 0 0 0 0 0 
0 0 0 0 0 0 0 0 294 
0 0 0 0 0 0 0 0 0 
0 0 0 0 0 0 0 0 0 
0 0 0 0 0 0 0 0 0 
0 0 0 0 0 0 0 285 0 
0 0 0 0 0 0 235 0 0 
0 0 0 0 0 0 0 0 0 
0 0 0 290 0 0 0 222 0 
0 0 0 0 0 0 0 0 0 
0 0 0 0 0 0 0 0 0 
0 0 0 0 0 0 0 147 0 
0 0 0 0 0 0 0 0 0 
0 0 0 0 0 0 0 0 0 
0 0 0 0 0 0 0 0 0 
0 0 0 0 0 0 0 0 0 
0 0 0 0 0 0 0 0 0 
0 0 243 0 0 0 0 0 0 
0 0 0 0 0 0 0 0 0 
0 0 0 0 0 0 0 217 0 
0 281 0 160 0 0 0 0 0 
0 0 283 0 0 170 0 0 0 
0 286 0 0 0 0 0 
cytokine 1 2500 double
0 0 0 0 0 0 0 0 0 
0 0 0 0 0 0 0 0 0 
0 0 0 0 0 0 0 0 0 
0 0 0 0 0 0 0 0 0 
0 0 0 0 0 0 0 0 0 
0 0 0 0 0 0 0 0 0 
0 0 0 0 0 0 0 0 0 
0 0 0 0 0 0 0 0 0 
0 0 0 0 0 0 0 0 0 
0 0 0 0 0 0 0 0 0 
0 0 0 0 0 0 0 0 0 
0 0 0 0 0 0 0 0 0 
0 0 0 0 0 0 0 0 0 
0 0 0 0 0 0 0 0 0 
0 0 0 0 0 0 0 0 0 
0 0 0 0 0 0 0 0 0 
0 0 0 0 0 0 0 0 0 
0 0 0 0 0 0 0 0 0 
0 0 0 0 0 0 0 0 0 
0 0 0 0 0 0 0 0 0 
0 0 0 0 0 0 0 0 0 
0 0 0 0 0 0 0 0 0 
0 0 0 0 0 0 0 0 0 
0 0 0 0 0 0 0 0 0 
0 0 0 0 0 0 0 0 0 
0 0 0 0 0 0 0 0 0 
0 0 0 0 0 0 0 0 0 
0 0 0 0 0 0 0 0 0 
0 0 0 0 0 0 0 0 0 
0 0 0 0 0 0 0 0 0 
0 0 0 0 0 0 0 0 0 
0 0 0 0 0 0 0 0 0 
0 0 0 0 0 0 0 0 0 
0 0 0 0 0 0 0 0 0 
0 0 0 0 0 0 0 0 0 
0 0 0 0 0 0 0 0 0 
0 0 0 0 0 0 0 0 0 
0 0 0 0 0 0 0 0 0 
0 0 0 0 0 0 0 0 0 
0 0 0 0 0 0 0 0 0 
0 0 0 0 0 0 0 0 0 
0 0 0 0 0 0 0 0 0 
0 0 0 0 0 0 0 0 0 
0 0 0 0 0 0 0 0 0 
0 0 0 0 0 0 0 0 0 
0 0 0 0 0 0 0 0 0 
0 0 0 0 0 0 0 0 0 
0 0 0 0 0 0 0 0 0 
0 0 0 0 0 0 0 0 0 
0 0 0 0 0 0 0 0 0 
0 0 0 0 0 0 0 0 0 
0 0 0 0 0 0 0 0 0 
0 0 0 0 0 0 0 0 0 
0 0 0 0 0 0 0 0 0 
0 0 0 0 0 0 0 0 0 
0 0 0 0 0 0 0 0 0 
0 0 0 0 0 0 0 0 0 
0 0 0 0 0 0 0 0 0 
0 0 0 0 0 0 0 0 0 
0 0 0 0 0 0 0 0 0 
0 0 0 0 0 0 0 0 0 
0 0 0 0 0 0 0 0 0 
0 0 0 0 0 0 0 0 0 
0 0 0 0 0 0 0 0 0 
0 0 0 0 0 0 0 0 0 
0 0 0 0 0 0 0 0 0 
0 0 0 0 0 0 0 0 0 
0 0 0 0 0 0 0 0 0 
0 0 0 0 0 0 0 0 0 
0 0 0 0 0 0 0 0 0 
0 0 0 0 0 0 0 0 0 
0 0 0 0 0 0 0 0 0 
0 0 0 0 0 0 0 0 0 
0 0 0 0 0 0 0 0 0 
0 0 0 0 0 0 0 0 0 
0 0 0 0 0 0 0 0 0 
0 0 0 0 0 0 0 0 0 
0 0 0 0 0 0 0 0 0 
0 0 0 0 0 0 0 0 0 
0 0 0 0 0 0 0 0 0 
0 0 0 0 0 0 0 0 0 
0 0 0 0 0 0 0 0 0 
0 0 0 0 0 0 0 0 0 
0 0 0 0 0 0 0 0 0 
0 0 0 0 0 0 0 0 0 
0 0 0 0 0 0 0 0 0 
0 0 0 0 0 0 0 0 0 
0 0 0 0 0 0 0 0 0 
0 0 0 0 0 0 0 0 0 
0 0 0 0 0 0 0 0 0 
0 0 0 0 0 0 0 0 0 
0 0 0 0 0 0 0 0 0 
0 0 0 0 0 0 0 0 0 
0 0 0 0 0 0 0 0 0 
0 0 0 0 0 0 0 0 0 
0 0 0 0 0 0 0 0 0 
0 0 0 0 0 0 0 0 0 
0 0 0 0 0 0 0 0 0 
0 0 0 0 0 0 0 0 0 
0 0 0 0 0 0 0 0 0 
0 0 0 0 0 0 0 0 0 
0 0 0 0 0 0 0 0 0 
0 0 0 0 0 0 0 0 0 
0 0 0 0 0 0 0 0 0 
0 0 0 0 0 0 0 0 0 
0 0 0 0 0 0 0 0 0 
0 0 0 0 0 0 0 0 0 
0 0 0 0 0 0 0 0 0 
0 0 0 0 0 0 0 0 0 
0 0 0 0 0 0 0 0 0 
0 0 0 0 0 0 0 0 0 
0 0 0 0 0 0 0 0 0 
0 0 0 0 0 0 0 0 0 
0 0 0 0 0 0 0 0 0 
0 0 0 0 0 0 0 0 0 
0 0 0 0 0 0 0 0 0 
0 0 0 0 0 0 0 0 0 
0 0 0 0 0 0 0 0 0 
0 0 0 0 0 0 0 0 0 
0 0 0 0 0 0 0 0 0 
0 0 0 0 0 0 0 0 0 
0 0 0 0 0 0 0 0 0 
0 0 0 0 0 0 0 0 0 
0 0 0 0 0 0 0 0 0 
0 0 0 0 0 0 0 0 0 
0 0 0 0 0 0 0 0 0 
0 0 0 0 0 0 0 0 0 
0 0 0 0 0 0 0 0 0 
0 0 0 0 0 0 0 0 0 
0 0 0 0 0 0 0 0 0 
0 0 0 0 0 0 0 0 0 
0 0 0 0 0 0 0 0 0 
0 0 0 0 0 0 0 0 0 
0 0 0 0 0 0 0 0 0 
0 0 0 0 0 0 0 0 0 
0 0 0 0 0 0 0 0 0 
0 0 0 0 0 0 0 0 0 
0 0 0 0 0 0 0 0 0 
0 0 0 0 0 0 0 0 0 
0 0 0 0 0 0 0 0 0 
0 0 0 0 0 0 0 0 0 
0 0 0 0 0 0 0 0 0 
0 0 0 0 0 0 0 0 0 
0 0 0 0 0 0 0 0 0 
0 0 0 0 0 0 0 0 0 
0 0 0 0 0 0 0 0 0 
0 0 0 0 0 0 0 0 0 
0 0 0 0 0 0 0 0 0 
0 0 0 0 0 0 0 0 0 
0 0 0 0 0 0 0 0 0 
0 0 0 0 0 0 0 0 0 
0 0 0 0 0 0 0 0 0 
0 0 0 0 0 0 0 0 0 
0 0 0 0 0 0 0 0 0 
0 0 0 0 0 0 0 0 0 
0 0 0 0 0 0 0 0 0 
0 0 0 0 0 0 0 0 0 
0 0 0 0 0 0 0 0 0 
0 0 0 0 0 0 0 0 0 
0 0 0 0 0 0 0 0 0 
0 0 0 0 0 0 0 0 0 
0 0 0 0 0 0 0 0 0 
0 0 0 0 0 0 0 0 0 
0 0 0 0 0 0 0 0 0 
0 0 0 0 0 0 0 0 0 
0 0 0 0 0 0 0 0 0 
0 0 0 0 0 0 0 0 0 
0 0 0 0 0 0 0 0 0 
0 0 0 0 0 0 0 0 0 
0 0 0 0 0 0 0 0 0 
0 0 0 0 0 0 0 0 0 
0 0 0 0 0 0 0 0 0 
0 0 0 0 0 0 0 0 0 
0 0 0 0 0 0 0 0 0 
0 0 0 0 0 0 0 0 0 
0 0 0 0 0 0 0 0 0 
0 0 0 0 0 0 0 0 0 
0 0 0 0 0 0 0 0 0 
0 0 0 0 0 0 0 0 0 
0 0 0 0 0 0 0 0 0 
0 0 0 0 0 0 0 0 0 
0 0 0 0 0 0 0 0 0 
0 0 0 0 0 0 0 0 0 
0 0 0 0 0 0 0 0 0 
0 0 0 0 0 0 0 0 0 
0 0 0 0 0 0 0 0 0 
0 0 0 0 0 0 0 0 0 
0 0 0 0 0 0 0 0 0 
0 0 0 0 0 0 0 0 0 
0 0 0 0 0 0 0 0 0 
0 0 0 0 0 0 0 0 0 
0 0 0 0 0 0 0 0 0 
0 0 0 0 0 0 0 0 0 
0 0 0 0 0 0 0 0 0 
0 0 0 0 0 0 0 0 0 
0 0 0 0 0 0 0 0 0 
0 0 0 0 0 0 0 0 0 
0 0 0 0 0 0 0 0 0 
0 0 0 0 0 0 0 0 0 
0 0 0 0 0 0 0 0 0 
0 0 0 0 0 0 0 0 0 
0 0 0 0 0 0 0 0 0 
0 0 0 0 0 0 0 0 0 
0 0 0 0 0 0 0 0 0 
0 0 0 0 0 0 0 0 0 
0 0 0 0 0 0 0 0 0 
0 0 0 0 0 0 0 0 0 
0 0 0 0 0 0 0 0 0 
0 0 0 0 0 0 0 0 0 
0 0 0 0 0 0 0 0 0 
0 0 0 0 0 0 0 0 0 
0 0 0 0 0 0 0 0 0 
0 0 0 0 0 0 0 0 0 
0 0 0 0 0 0 0 0 0 
0 0 0 0 0 0 0 0 0 
0 0 0 0 0 0 0 0 0 
0 0 0 0 0 0 0 0 0 
0 0 0 0 0 0 0 0 0 
0 0 0 0 0 0 0 0 0 
0 0 0 0 0 0 0 0 0 
0 0 0 0 0 0 0 0 0 
0 0 0 0 0 0 0 0 0 
0 0 0 0 0 0 0 0 0 
0 0 0 0 0 0 0 0 0 
0 0 0 0 0 0 0 0 0 
0 0 0 0 0 0 0 0 0 
0 0 0 0 0 0 0 0 0 
0 0 0 0 0 0 0 0 0 
0 0 0 0 0 0 0 0 0 
0 0 0 0 0 0 0 0 0 
0 0 0 0 0 0 0 0 0 
0 0 0 0 0 0 0 0 0 
0 0 0 0 0 0 0 0 0 
0 0 0 0 0 0 0 0 0 
0 0 0 0 0 0 0 0 0 
0 0 0 0 0 0 0 0 0 
0 0 0 0 0 0 0 0 0 
0 0 0 0 0 0 0 0 0 
0 0 0 0 0 0 0 0 0 
0 0 0 0 0 0 0 0 0 
0 0 0 0 0 0 0 0 0 
0 0 0 0 0 0 0 0 0 
0 0 0 0 0 0 0 0 0 
0 0 0 0 0 0 0 0 0 
0 0 0 0 0 0 0 0 0 
0 0 0 0 0 0 0 0 0 
0 0 0 0 0 0 0 0 0 
0 0 0 0 0 0 0 0 0 
0 0 0 0 0 0 0 0 0 
0 0 0 0 0 0 0 0 0 
0 0 0 0 0 0 0 0 0 
0 0 0 0 0 0 0 0 0 
0 0 0 0 0 0 0 0 0 
0 0 0 0 0 0 0 0 0 
0 0 0 0 0 0 0 0 0 
0 0 0 0 0 0 0 0 0 
0 0 0 0 0 0 0 0 0 
0 0 0 0 0 0 0 0 0 
0 0 0 0 0 0 0 0 0 
0 0 0 0 0 0 0 0 0 
0 0 0 0 0 0 0 0 0 
0 0 0 0 0 0 0 0 0 
0 0 0 0 0 0 0 0 0 
0 0 0 0 0 0 0 0 0 
0 0 0 0 0 0 0 0 0 
0 0 0 0 0 0 0 0 0 
0 0 0 0 0 0 0 0 0 
0 0 0 0 0 0 0 0 0 
0 0 0 0 0 0 0 0 0 
0 0 0 0 0 0 0 0 0 
0 0 0 0 0 0 0 0 0 
0 0 0 0 0 0 0 0 0 
0 0 0 0 0 0 0 0 0 
0 0 0 0 0 0 0 0 0 
0 0 0 0 0 0 0 0 0 
0 0 0 0 0 0 0 0 0 
0 0 0 0 0 0 0 0 0 
0 0 0 0 0 0 0 
il1 1 2500 double
1.0897863805e-26 4.7266423405e-24 1.8320903501e-21 6.483023915e-19 2.0990289055e-16 5.9549994059e-14 1.3448874826e-11 1.898351476e-09 1.3448874826e-11 
5.9549994059e-14 2.1094532341e-16 6.5383323127e-19 1.8524905708e-21 4.7871779486e-24 1.1078333456e-26 2.3737283671e-29 4.7816100926e-32 9.1076969398e-35 
1.6378145517e-37 2.7517578204e-40 4.203895393e-43 0 0 0 0 0 0 
0 0 0 0 0 0 0 0 0 
0 0 0 0 0 0 0 1.0566883434e-39 5.4809908329e-37 
1.9323788625e-34 5.2911351719e-32 1.1213894868e-29 1.6919209821e-27 1.4012352603e-25 6.7711540534e-25 3.0641462871e-22 1.2986278083e-19 5.241664209e-17 
1.9746514875e-14 6.6951015044e-12 1.8916728184e-09 3.5632723439e-07 1.8916728184e-09 6.6951015044e-12 1.9746516569e-14 5.2416661942e-17 1.2986285838e-19 
3.0641488114e-22 6.7848945312e-25 1.3732519912e-27 2.6142599396e-30 4.737432517e-33 8.2003092889e-36 1.3514915525e-38 2.0963425026e-41 2.9427267751e-44 
0 0 0 0 0 0 0 0 0 
1.1326175365e-23 0 0 0 0 0 0 0 0 
0 0 1.0566883434e-39 6.383482199e-37 2.6992582904e-34 9.2358026907e-32 2.6088436378e-29 5.8987420855e-27 9.7342852185e-25 
7.8885598273e-23 1.2635853802e-26 5.7162647962e-24 2.3057079983e-21 8.3791173004e-19 2.8072675634e-16 8.3336007366e-14 2.0199290157e-11 3.1743900841e-09 
2.0199290157e-11 8.3336007366e-14 2.8072675634e-16 8.3791178174e-19 2.3057082003e-21 5.7162655851e-24 1.2662166627e-26 2.6309512071e-29 5.1750480518e-32 
9.6597005922e-35 1.70423296e-37 2.8047689413e-40 4.161856439e-43 0 0 0 0 0 
0 0 0 0 6.7957053769e-23 6.3972024078e-21 6.7957053769e-23 0 0 
0 0 0 0 0 0 7.9251695819e-40 5.4704239214e-37 2.6983479711e-34 
1.1077555485e-31 3.9104815852e-29 1.1784353951e-26 2.9143458374e-24 4.7037728527e-22 3.8205934455e-20 1.3811710762e-25 7.795648421e-23 3.7752704103e-20 
1.7775998867e-17 8.0352281293e-15 3.4052461372e-12 1.2828008655e-09 3.6244566104e-07 1.2828008655e-09 3.4052461372e-12 8.0352281293e-15 1.7775998867e-17 
3.7752704103e-20 7.795648421e-23 1.3832709253e-25 2.0997911034e-28 3.0997654376e-31 4.3947766484e-34 5.845846802e-37 6.9241380109e-40 6.1937392123e-43 
0 0 0 0 0 0 0 0 1.6989263127e-22 
3.1986011231e-20 3.6152511834e-18 3.1986011231e-20 1.6989263127e-22 0 0 0 0 0 
0 4.4028657619e-40 3.4184644648e-37 1.9269084516e-34 9.2281090802e-32 3.9086396137e-29 1.4720648315e-26 4.8523102493e-24 1.1735008998e-21 
1.8984741146e-19 1.7960082949e-17 1.6757558817e-27 9.6777534739e-25 4.6755157288e-22 1.8870249009e-19 7.1087531266e-17 2.4102142943e-14 6.8099306576e-12 
1.2827613416e-09 6.8099306576e-12 2.4102142943e-14 7.1087531266e-17 1.8870249009e-19 4.6755157288e-22 9.6777534739e-25 1.6785427023e-27 2.7868014455e-30 
4.3883845305e-33 6.4179229315e-36 8.2873323674e-39 8.0238350067e-42 0 0 0 0 0 
0 0 0 2.2652351677e-22 6.3972022462e-20 1.4460394274e-17 2.0429483893e-15 1.4460394274e-17 6.3972022462e-20 
2.2652351677e-22 0 0 0 0 1.76115191e-40 1.5191218813e-37 9.6327032522e-35 5.2718664685e-32 
2.6048969861e-29 1.1771355465e-26 4.8493737146e-24 1.5630474325e-21 3.7890892379e-19 7.145875669e-17 8.1050109387e-15 1.1155979296e-29 5.8737400482e-27 
2.9029298368e-24 1.1687593535e-21 3.7737445205e-19 1.0662553972e-16 2.4101494116e-14 3.4049839771e-12 2.4101494116e-14 1.0662553972e-16 3.7737445205e-19 
1.1687593535e-21 2.9029298368e-24 5.8737400482e-27 1.1144147616e-29 1.9740405772e-32 3.2073796711e-35 4.555057425e-38 4.8085556803e-41 0 
0 0 0 0 0 0 0 1.6989263127e-22 6.3972022462e-20 
2.1690421012e-17 6.128684867e-15 1.154460208e-12 6.128684867e-15 2.1690421012e-17 6.3972022462e-20 1.6989263127e-22 0 0 
4.8030906163e-41 4.5568852787e-38 3.2104334883e-35 1.9765775879e-32 1.1161176297e-29 5.8838870027e-27 2.9084731623e-24 1.1715658303e-21 3.7851937342e-19 
1.0699829378e-16 2.4207466408e-14 3.4290324486e-12 5.2718864519e-32 2.600013249e-29 1.1746553339e-26 4.837957714e-24 1.5582867011e-21 3.7736496533e-19 
7.1083243162e-17 8.0340592238e-15 7.1083243162e-17 3.7736496533e-19 1.5582867011e-21 4.837957714e-24 1.1746553339e-26 2.600013249e-29 5.2633188614e-32 
9.6202268261e-35 1.5179557768e-37 1.7623290007e-40 0 0 0 0 0 0 
0 0 6.7957053769e-23 3.1986011231e-20 1.4460394274e-17 6.128684867e-15 2.3088915762e-12 6.5238403568e-10 2.3088915762e-12 
6.128684867e-15 1.4460394274e-17 3.1986011231e-20 6.7957053769e-23 8.0056181267e-42 8.28451856e-39 6.4202059046e-36 4.3918246882e-33 2.789834409e-30 
1.6807598328e-27 9.6923375398e-25 4.6844226626e-22 1.8914622079e-19 7.1270086718e-17 2.41719266e-14 6.833821703e-12 1.2895513546e-09 1.9271444688e-34 
9.2101222533e-32 3.8998095259e-29 1.4682647406e-26 4.8378480623e-24 1.1687016972e-21 1.8868349079e-19 1.7771709109e-17 1.8868349079e-19 1.1687016972e-21 
4.8378480623e-24 1.4682647406e-26 3.8998095259e-29 9.2101222533e-32 1.9238541178e-34 3.4149542682e-37 4.4048415928e-40 0 0 
0 0 0 0 0 0 1.1326175365e-23 6.3972024078e-21 3.6152511834e-18 
2.0429483893e-15 1.154460208e-12 6.5238403568e-10 3.6866367736e-07 6.5238403568e-10 1.154460208e-12 2.0429483893e-15 3.6152511834e-18 6.3972024078e-21 
1.1326175365e-23 5.8363968935e-37 4.3916964858e-34 3.0996457723e-31 2.1007559943e-28 1.3844278391e-25 7.805627827e-23 3.7816377623e-20 1.780914234e-17 
8.0517012261e-15 3.4129654398e-12 1.2861465226e-09 3.6372171053e-07 5.4713355502e-37 2.6932449021e-34 1.105169696e-31 3.8997011923e-29 1.1745927797e-26 
2.902694559e-24 4.6748568722e-22 3.7739136402e-20 4.6748568722e-22 2.902694559e-24 1.1745927797e-26 3.8997011923e-29 1.105169696e-31 2.6932449021e-34 
5.463518771e-37 7.9277059321e-40 0 0 0 0 0 0 0 
0 0 0 6.7957053769e-23 3.1986011231e-20 1.4460394274e-17 6.128684867e-15 2.3088915762e-12 6.5238403568e-10 
2.3088915762e-12 6.128684867e-15 1.4460394274e-17 3.1986011231e-20 6.7957053769e-23 8.0056181267e-42 9.3412069034e-39 6.9664556326e-36 4.5841734002e-33 
2.8424566831e-30 1.691901145e-27 9.7091175974e-25 4.6858049994e-22 1.8914622079e-19 7.1270086718e-17 2.41719266e-14 6.833821703e-12 1.2895513546e-09 
1.0569433797e-39 6.3738076344e-37 2.6931551329e-34 9.2095427346e-32 2.5997697994e-29 5.8729585058e-27 9.6757931545e-25 7.7919414058e-23 9.6757931545e-25 
5.8729585058e-27 2.5997697994e-29 9.2095427346e-32 2.6931551329e-34 6.3738076344e-37 1.0569433797e-39 0 0 0 
0 0 0 0 0 0 0 0 0 
1.6989263127e-22 6.3972022462e-20 2.1690421012e-17 6.128684867e-15 1.154460208e-12 6.128684867e-15 2.1690421012e-17 6.3972022462e-20 1.6989263127e-22 
0 1.0566883434e-39 6.3733955406e-37 2.6933410998e-34 9.2120841534e-32 2.601611169e-29 5.8839066472e-27 9.7343966451e-25 8.0826517955e-23 
1.1725333651e-21 3.7851939927e-19 1.0699829378e-16 2.4207466408e-14 3.4290324486e-12 0 1.0568859265e-39 5.4630936731e-37 1.9236442737e-34 
1.1326175365e-23 1.1141893676e-29 1.6780215456e-27 1.3823560932e-25 1.6780215456e-27 1.1141893676e-29 5.2625459738e-32 1.9236442737e-34 5.4630936731e-37 
1.0568859265e-39 0 0 0 0 0 0 0 0 
0 0 0 0 0 0 2.2652351677e-22 6.3972022462e-20 1.4460394274e-17 
2.0429483893e-15 1.4460394274e-17 6.3972022462e-20 2.2652351677e-22 0 7.9251695819e-40 5.4624986257e-37 2.6928853662e-34 1.105062726e-31 
3.8994309603e-29 1.1745359262e-26 2.9026004873e-24 4.6747473152e-22 3.773847078e-20 4.7232406776e-22 1.5659500367e-21 3.7890894964e-19 7.145875669e-17 
8.1050109387e-15 0 0 7.9263466726e-40 6.7957053769e-23 6.3972024078e-21 6.7957053769e-23 2.7855388705e-30 2.0977070065e-28 
2.7855388705e-30 1.9734609115e-32 9.6181289589e-35 3.4143592208e-37 7.9263466726e-40 1.1326175365e-23 0 0 0 
0 0 0 0 0 0 0 0 0 
0 0 0 1.6989263127e-22 3.1986011231e-20 3.6152511834e-18 3.1986011231e-20 1.6989263127e-22 0 
4.4028657619e-40 3.4140616971e-37 1.9234949262e-34 9.2088750538e-32 3.8994309603e-29 1.4681653626e-26 4.8376283645e-24 1.1686632261e-21 1.8867874743e-19 
1.7771403052e-17 1.8867876035e-19 1.1735155411e-21 1.1783384725e-21 1.8984742438e-19 1.7960082949e-17 0 0 1.6989263127e-22 
3.1986011231e-20 3.6152511834e-18 3.1986011231e-20 1.6989263127e-22 3.0953385259e-31 4.3855743643e-33 3.2060448996e-35 1.5174689096e-37 4.4034122683e-40 