# vtk DataFile Version 5.1
vtk output
ASCII
DATASET STRUCTURED_POINTS
DIMENSIONS 50 50 1
SPACING 1 1 1
ORIGIN 0 0 0
POINT_DATA 2500
FIELD FieldData 10
CellType 1 2500 char
0 0 0 0 0 0 0 0 0 
0 0 0 0 0 0 0 0 0 
0 0 0 0 0 0 0 0 0 
0 0 0 0 0 0 0 0 0 
0 0 0 0 0 0 0 0 0 
0 0 0 0 0 0 0 0 0 
0 0 0 0 0 0 0 0 0 
0 0 0 0 0 0 0 0 0 
9 9 0 0 0 0 0 0 0 
0 0 0 0 0 0 0 0 0 
0 0 0 0 0 0 0 0 0 
0 0 0 0 0 0 0 0 0 
0 0 0 0 0 0 0 0 0 
0 0 0 0 0 0 0 0 0 
0 0 0 0 0 0 0 0 0 
0 0 0 0 0 0 0 0 0 
0 0 0 0 0 0 0 0 0 
0 0 0 0 0 0 0 0 0 
0 0 0 0 0 0 0 0 0 
0 0 0 0 0 0 0 0 0 
0 0 0 0 0 0 0 0 10 
0 0 0 0 0 0 0 0 0 
0 0 0 0 0 0 0 0 0 
0 0 0 0 10 0 0 0 0 
0 0 0 0 0 0 0 0 0 
0 0 0 0 0 0 0 0 0 
0 0 0 0 10 0 0 0 0 
0 0 0 0 0 0 0 0 0 
0 0 0 0 0 0 0 0 0 
0 0 0 0 0 9 0 0 0 
0 0 0 0 0 0 0 0 0 
0 0 0 0 0 0 0 0 0 
0 0 0 0 0 0 0 0 0 
0 0 0 0 0 0 0 8 0 
0 0 0 0 0 0 0 0 0 
0 0 0 0 0 0 0 0 0 
0 0 0 0 0 0 0 0 0 
0 0 0 0 0 0 0 0 0 
0 0 0 0 0 0 0 0 3 
0 0 0 0 0 0 0 0 0 
10 0 0 0 0 0 0 0 0 
0 0 0 1 0 0 0 0 0 
0 0 0 0 0 0 0 0 0 
0 0 0 0 0 0 0 0 0 
0 0 0 0 0 0 0 0 0 
0 0 0 1 0 0 0 0 0 
0 0 0 0 0 0 0 0 1 
0 0 0 0 0 0 1 0 0 
0 0 0 1 0 0 0 0 0 
0 0 0 0 0 0 0 0 0 
0 0 0 0 0 0 0 0 0 
0 0 0 1 0 0 0 0 0 
0 0 0 0 9 0 0 0 0 
0 0 0 0 4 0 0 0 0 
0 0 0 1 0 0 0 0 0 
0 0 0 0 0 0 0 0 0 
0 4 0 0 0 0 0 1 0 
0 0 0 0 0 0 0 0 0 
0 0 0 0 0 0 0 0 1 
1 0 0 0 0 0 0 0 0 
0 0 0 0 0 0 0 0 0 
0 0 0 0 0 0 0 0 0 
0 0 0 0 0 0 0 1 0 
0 1 0 0 0 0 0 0 0 
0 0 0 0 0 0 0 0 0 
0 0 0 0 0 0 0 0 0 
0 0 0 0 9 0 0 0 0 
0 0 0 0 0 0 0 0 0 
0 0 0 0 0 0 0 0 0 
0 0 0 0 0 0 0 10 1 
0 0 0 0 0 0 0 0 0 
1 0 1 0 0 0 0 0 0 
0 0 0 0 0 0 0 0 0 
0 0 0 0 1 0 0 0 0 
1 0 0 0 0 0 0 0 0 
0 0 0 0 0 0 0 0 1 
0 0 0 0 0 0 0 0 0 
0 0 0 0 0 0 0 0 0 
0 0 0 0 0 0 0 0 0 
0 0 0 0 1 0 1 0 0 
0 0 1 0 0 0 0 0 0 
0 0 0 0 0 0 0 0 0 
0 0 0 0 0 0 0 0 0 
0 0 0 0 0 0 0 0 0 
0 0 0 0 0 1 0 0 0 
0 0 0 0 1 0 0 0 0 
0 0 0 0 0 0 0 0 0 
0 0 0 0 0 0 0 0 3 
0 0 0 0 0 0 0 0 0 
0 0 0 0 0 0 0 0 0 
1 0 0 0 0 0 0 0 0 
0 0 0 0 0 0 0 0 0 
0 0 0 0 0 0 0 1 1 
0 0 0 0 0 0 0 0 0 
0 0 7 0 0 0 0 0 0 
0 0 0 0 0 0 0 0 0 
0 0 0 0 0 1 0 0 0 
0 0 0 0 0 0 0 0 0 
0 0 0 0 0 0 0 0 0 
0 0 0 0 0 0 0 0 0 
0 0 0 0 0 0 0 0 1 
0 0 0 0 0 0 0 0 0 
0 0 0 0 0 1 0 0 0 
0 0 0 0 0 0 0 1 0 
0 0 0 0 0 10 0 0 0 
0 0 0 0 0 0 0 0 0 
0 0 0 0 0 0 0 0 0 
4 0 0 0 0 0 1 0 0 
0 0 0 1 0 7 0 0 0 
1 0 0 0 0 0 0 0 0 
0 0 0 0 0 0 0 0 0 
0 0 0 0 0 0 0 0 0 
0 0 0 0 0 0 0 0 0 
0 0 1 1 0 0 0 0 0 
0 1 0 0 0 0 0 0 0 
0 0 0 0 0 0 0 0 0 
0 0 0 0 0 0 4 0 0 
0 4 0 0 0 0 0 0 0 
0 0 0 0 1 0 0 0 0 
0 0 0 0 0 0 0 0 0 
0 0 0 0 0 0 0 0 0 
0 0 0 0 0 0 0 0 0 
0 0 0 0 0 0 0 0 0 
9 0 0 0 0 0 0 0 0 
0 0 0 0 0 0 0 0 0 
0 1 0 0 0 0 0 0 0 
0 0 1 0 0 0 0 0 0 
0 0 0 0 0 0 0 0 0 
0 0 0 0 0 9 0 0 0 
0 0 0 0 0 0 0 0 0 
0 0 0 0 0 0 0 1 0 
0 0 0 0 0 0 0 1 0 
0 0 1 0 0 0 0 0 0 
0 0 0 0 0 0 0 0 0 
0 9 0 0 0 0 0 1 0 
0 0 0 1 0 0 0 0 0 
0 1 1 0 0 0 0 0 0 
0 0 0 0 0 0 0 0 0 
0 0 0 0 0 0 0 0 0 
0 0 0 0 0 0 0 0 0 
0 0 0 0 0 0 0 0 0 
0 0 0 9 0 0 0 0 0 
0 0 0 0 0 0 0 1 0 
0 0 0 0 0 0 0 0 0 
0 0 0 0 0 0 0 0 0 
0 0 0 0 0 0 0 0 0 
0 0 0 0 1 0 0 0 0 
1 0 0 0 0 0 0 0 0 
0 0 0 0 0 0 1 1 0 
0 0 0 7 0 0 0 0 0 
0 0 0 9 0 0 0 1 0 
0 0 0 0 1 0 0 0 0 
0 0 0 0 0 0 1 0 0 
1 0 0 3 0 0 0 0 0 
1 0 0 0 0 0 0 0 0 
0 0 0 0 0 0 0 0 0 
0 0 0 0 0 0 0 0 0 
0 0 0 0 0 0 0 0 0 
0 0 0 0 0 0 0 0 0 
0 0 0 0 0 0 0 0 1 
0 0 3 0 0 0 0 0 0 
0 0 0 0 0 0 0 0 0 
0 0 0 0 0 0 0 0 0 
0 0 0 0 0 0 0 0 0 
0 0 1 0 0 0 0 1 0 
0 0 0 1 0 0 0 1 0 
0 0 0 0 0 0 0 0 0 
0 0 0 0 0 0 0 0 0 
0 0 0 0 0 0 0 0 0 
0 0 0 0 0 0 0 0 0 
0 0 0 0 0 0 0 0 0 
0 0 0 0 0 0 0 0 0 
0 0 0 0 0 0 0 0 0 
0 0 0 0 0 0 0 0 1 
0 0 0 0 0 1 0 0 0 
0 0 0 1 0 0 0 0 0 
0 0 0 0 0 0 0 0 0 
0 0 0 0 0 0 0 0 0 
0 0 0 0 0 0 0 0 0 
1 0 0 0 0 0 1 1 0 
0 0 0 1 0 0 0 0 0 
0 0 4 0 0 0 7 0 0 
0 0 0 0 0 0 0 0 0 
0 0 0 0 0 0 0 0 0 
0 0 0 0 0 1 0 0 0 
0 0 0 0 0 0 1 0 0 
0 0 0 0 0 0 1 0 0 
0 0 5 0 0 0 0 0 1 
0 0 0 0 0 0 0 0 0 
0 0 0 0 0 0 0 0 4 
0 0 1 0 0 0 0 0 0 
0 1 0 0 1 0 4 0 0 
0 0 0 0 0 0 0 0 0 
0 0 0 0 0 0 0 0 0 
0 0 0 0 0 0 0 0 0 
0 0 0 0 0 0 0 0 0 
0 0 0 0 1 0 0 0 0 
0 0 0 0 0 1 0 0 0 
0 0 0 0 0 0 0 0 1 
1 0 0 0 0 0 0 0 0 
10 0 0 0 0 0 0 0 0 
0 0 0 0 0 0 0 0 0 
3 1 0 0 0 0 0 0 0 
0 0 0 0 0 0 0 0 0 
0 0 0 0 0 0 0 0 0 
0 0 0 0 0 0 0 0 0 
0 0 0 0 0 0 0 1 0 
0 10 0 0 0 1 4 1 0 
0 1 0 0 0 0 0 0 0 
0 0 1 0 0 0 0 0 0 
0 1 0 0 0 0 0 0 0 
0 0 0 0 0 0 0 0 0 
0 0 0 0 0 0 0 0 0 
0 0 0 0 0 0 0 0 0 
0 0 0 0 0 0 1 0 0 
0 0 0 0 0 0 0 0 0 
0 0 0 0 0 0 0 0 0 
0 0 0 0 0 0 0 0 0 
1 0 0 0 0 0 0 0 0 
0 0 0 0 0 0 0 0 0 
0 0 0 0 0 0 0 0 0 
0 1 0 0 0 0 0 0 0 
0 0 0 0 0 0 0 0 0 
0 0 0 1 0 0 0 0 0 
0 0 0 0 0 0 0 0 0 
0 0 1 0 0 0 0 0 1 
0 0 0 0 0 0 0 0 0 
0 0 0 0 0 0 0 0 0 
0 0 0 0 0 0 0 0 0 
0 0 0 0 0 0 0 0 0 
0 0 0 0 0 0 0 0 0 
0 0 0 0 0 0 0 0 0 
0 0 0 0 1 0 0 0 0 
0 0 0 0 0 0 0 0 0 
0 0 0 0 0 0 0 0 0 
0 0 0 0 0 0 0 0 0 
0 0 0 0 0 0 0 0 0 
0 0 0 0 0 0 0 1 0 
0 0 0 0 0 0 0 0 0 
0 0 0 0 0 0 0 0 0 
0 0 0 0 0 0 0 0 0 
0 0 0 0 0 0 0 0 0 
0 0 0 0 0 0 0 0 0 
0 0 0 0 0 0 0 0 0 
0 0 0 7 0 0 0 0 0 
0 0 0 0 0 0 0 3 0 
0 0 0 0 0 0 0 0 0 
0 0 0 0 0 0 0 0 0 
0 0 0 0 0 0 0 0 0 
0 0 0 0 0 0 0 0 7 
0 0 0 0 0 0 0 0 0 
0 0 0 0 0 0 0 0 0 
0 0 0 0 0 0 0 0 0 
0 5 0 0 0 0 0 0 0 
0 0 0 0 0 0 0 0 0 
7 0 0 0 0 0 0 0 0 
0 0 0 0 0 0 0 0 0 
0 0 0 0 0 0 0 0 0 
0 0 0 0 0 10 0 0 0 
0 0 0 0 0 0 0 0 0 
0 0 0 0 0 0 0 0 0 
0 0 0 0 0 0 0 0 0 
0 0 0 0 0 0 0 0 0 
0 0 0 0 0 0 0 0 0 
0 0 0 0 0 0 0 0 0 
0 0 0 0 0 0 0 0 10 
0 0 0 0 0 0 0 0 0 
0 0 0 0 0 0 0 0 0 
0 0 0 0 0 0 0 0 0 
0 0 0 0 0 0 0 0 0 
0 0 0 0 0 4 0 0 0 
0 0 0 0 0 0 0 0 0 
0 0 0 0 0 0 0 0 0 
0 0 0 0 0 0 0 0 0 
0 0 0 0 3 0 0 0 0 
0 0 0 0 0 0 0 0 0 
0 4 0 0 0 0 0 0 0 
0 0 0 0 0 7 0 
CellId 1 2500 long
0 0 0 0 0 0 0 0 0 
0 0 0 0 0 0 0 0 0 
0 0 0 0 0 0 0 0 0 
0 0 0 0 0 0 0 0 0 
0 0 0 0 0 0 0 0 0 
0 0 0 0 0 0 0 0 0 
0 0 0 0 0 0 0 0 0 
0 0 0 0 0 0 0 0 0 
345 345 0 0 0 0 0 0 0 
0 0 0 0 0 0 0 0 0 
0 0 0 0 0 0 0 0 0 
0 0 0 0 0 0 0 0 0 
0 0 0 0 0 0 0 0 0 
0 0 0 0 0 0 0 0 0 
0 0 0 0 0 0 0 0 0 
0 0 0 0 0 0 0 0 0 
0 0 0 0 0 0 0 0 0 
0 0 0 0 0 0 0 0 0 
0 0 0 0 0 0 0 0 0 
0 0 0 0 0 0 0 0 0 
0 0 0 0 0 0 0 0 339 
0 0 0 0 0 0 0 0 0 
0 0 0 0 0 0 0 0 0 
0 0 0 0 326 0 0 0 0 
0 0 0 0 0 0 0 0 0 
0 0 0 0 0 0 0 0 0 
0 0 0 0 339 0 0 0 0 
0 0 0 0 0 0 0 0 0 
0 0 0 0 0 0 0 0 0 
0 0 0 0 0 275 0 0 0 
0 0 0 0 0 0 0 0 0 
0 0 0 0 0 0 0 0 0 
0 0 0 0 0 0 0 0 0 
0 0 0 0 0 0 0 360 0 
0 0 0 0 0 0 0 0 0 
0 0 0 0 0 0 0 0 0 
0 0 0 0 0 0 0 0 0 
0 0 0 0 0 0 0 0 0 
0 0 0 0 0 0 0 0 359 
0 0 0 0 0 0 0 0 0 
214 0 0 0 0 0 0 0 0 
0 0 0 77 0 0 0 0 0 
0 0 0 0 0 0 0 0 0 
0 0 0 0 0 0 0 0 0 
0 0 0 0 0 0 0 0 0 
0 0 0 63 0 0 0 0 0 
0 0 0 0 0 0 0 0 78 
0 0 0 0 0 0 43 0 0 
0 0 0 11 0 0 0 0 0 
0 0 0 0 0 0 0 0 0 
0 0 0 0 0 0 0 0 0 
0 0 0 62 0 0 0 0 0 
0 0 0 0 354 0 0 0 0 
0 0 0 0 215 0 0 0 0 
0 0 0 71 0 0 0 0 0 
0 0 0 0 0 0 0 0 0 
0 218 0 0 0 0 0 38 0 
0 0 0 0 0 0 0 0 0 
0 0 0 0 0 0 0 0 67 
100 0 0 0 0 0 0 0 0 
0 0 0 0 0 0 0 0 0 
0 0 0 0 0 0 0 0 0 
0 0 0 0 0 0 0 96 0 
0 25 0 0 0 0 0 0 0 
0 0 0 0 0 0 0 0 0 
0 0 0 0 0 0 0 0 0 
0 0 0 0 340 0 0 0 0 
0 0 0 0 0 0 0 0 0 
0 0 0 0 0 0 0 0 0 
0 0 0 0 0 0 0 352 68 
0 0 0 0 0 0 0 0 0 
31 0 7 0 0 0 0 0 0 
0 0 0 0 0 0 0 0 0 
0 0 0 0 69 0 0 0 0 
22 0 0 0 0 0 0 0 0 
0 0 0 0 0 0 0 0 33 
0 0 0 0 0 0 0 0 0 
0 0 0 0 0 0 0 0 0 
0 0 0 0 0 0 0 0 0 
0 0 0 0 8 0 61 0 0 
0 0 60 0 0 0 0 0 0 
0 0 0 0 0 0 0 0 0 
0 0 0 0 0 0 0 0 0 
0 0 0 0 0 0 0 0 0 
0 0 0 0 0 23 0 0 0 
0 0 0 0 85 0 0 0 0 
0 0 0 0 0 0 0 0 0 
0 0 0 0 0 0 0 0 358 
0 0 0 0 0 0 0 0 0 
0 0 0 0 0 0 0 0 0 
5 0 0 0 0 0 0 0 0 
0 0 0 0 0 0 0 0 0 
0 0 0 0 0 0 0 86 53 
0 0 0 0 0 0 0 0 0 
0 0 332 0 0 0 0 0 0 
0 0 0 0 0 0 0 0 0 
0 0 0 0 0 72 0 0 0 
0 0 0 0 0 0 0 0 0 
0 0 0 0 0 0 0 0 0 
0 0 0 0 0 0 0 0 0 
0 0 0 0 0 0 0 0 59 
0 0 0 0 0 0 0 0 0 
0 0 0 0 0 97 0 0 0 
0 0 0 0 0 0 0 51 0 
0 0 0 0 0 221 0 0 0 
0 0 0 0 0 0 0 0 0 
0 0 0 0 0 0 0 0 0 
212 0 0 0 0 0 54 0 0 
0 0 0 70 0 355 0 0 0 
3 0 0 0 0 0 0 0 0 
0 0 0 0 0 0 0 0 0 
0 0 0 0 0 0 0 0 0 
0 0 0 0 0 0 0 0 0 
0 0 42 57 0 0 0 0 0 
0 76 0 0 0 0 0 0 0 
0 0 0 0 0 0 0 0 0 
0 0 0 0 0 0 216 0 0 
0 219 0 0 0 0 0 0 0 
0 0 0 0 66 0 0 0 0 
0 0 0 0 0 0 0 0 0 
0 0 0 0 0 0 0 0 0 
0 0 0 0 0 0 0 0 0 
0 0 0 0 0 0 0 0 0 
230 0 0 0 0 0 0 0 0 
0 0 0 0 0 0 0 0 0 
0 84 0 0 0 0 0 0 0 
0 0 40 0 0 0 0 0 0 
0 0 0 0 0 0 0 0 0 
0 0 0 0 0 230 0 0 0 
0 0 0 0 0 0 0 0 0 
0 0 0 0 0 0 0 34 0 
0 0 0 0 0 0 0 88 0 
0 0 82 0 0 0 0 0 0 
0 0 0 0 0 0 0 0 0 
0 230 0 0 0 0 0 44 0 
0 0 0 29 0 0 0 0 0 
0 2 91 0 0 0 0 0 0 
0 0 0 0 0 0 0 0 0 
0 0 0 0 0 0 0 0 0 
0 0 0 0 0 0 0 0 0 
0 0 0 0 0 0 0 0 0 
0 0 0 293 0 0 0 0 0 
0 0 0 0 0 0 0 27 0 
0 0 0 0 0 0 0 0 0 
0 0 0 0 0 0 0 0 0 
0 0 0 0 0 0 0 0 0 
0 0 0 0 98 0 0 0 0 
10 0 0 0 0 0 0 0 0 
0 0 0 0 0 0 4 58 0 
0 0 0 233 0 0 0 0 0 
0 0 0 347 0 0 0 73 0 
0 0 0 0 75 0 0 0 0 
0 0 0 0 0 0 13 0 0 
55 0 0 341 0 0 0 0 0 
32 0 0 0 0 0 0 0 0 
0 0 0 0 0 0 0 0 0 
0 0 0 0 0 0 0 0 0 
0 0 0 0 0 0 0 0 0 
0 0 0 0 0 0 0 0 0 
0 0 0 0 0 0 0 0 49 
0 0 353 0 0 0 0 0 0 
0 0 0 0 0 0 0 0 0 
0 0 0 0 0 0 0 0 0 
0 0 0 0 0 0 0 0 0 
0 0 47 0 0 0 0 89 0 
0 0 0 37 0 0 0 30 0 
0 0 0 0 0 0 0 0 0 
0 0 0 0 0 0 0 0 0 
0 0 0 0 0 0 0 0 0 
0 0 0 0 0 0 0 0 0 
0 0 0 0 0 0 0 0 0 
0 0 0 0 0 0 0 0 0 
0 0 0 0 0 0 0 0 0 
0 0 0 0 0 0 0 0 95 
0 0 0 0 0 90 0 0 0 
0 0 0 48 0 0 0 0 0 
0 0 0 0 0 0 0 0 0 
0 0 0 0 0 0 0 0 0 
0 0 0 0 0 0 0 0 0 
83 0 0 0 0 0 52 87 0 
0 0 0 14 0 0 0 0 0 
0 0 213 0 0 0 357 0 0 
0 0 0 0 0 0 0 0 0 
0 0 0 0 0 0 0 0 0 
0 0 0 0 0 9 0 0 0 
0 0 0 0 0 0 21 0 0 
0 0 0 0 0 0 99 0 0 
0 0 350 0 0 0 0 0 64 
0 0 0 0 0 0 0 0 0 
0 0 0 0 0 0 0 0 351 
0 0 26 0 0 0 0 0 0 
0 80 0 0 45 0 211 0 0 
0 0 0 0 0 0 0 0 0 
0 0 0 0 0 0 0 0 0 
0 0 0 0 0 0 0 0 0 
0 0 0 0 0 0 0 0 0 
0 0 0 0 1 0 0 0 0 
0 0 0 0 0 94 0 0 0 
0 0 0 0 0 0 0 0 93 
35 0 0 0 0 0 0 0 0 
223 0 0 0 0 0 0 0 0 
0 0 0 0 0 0 0 0 0 
344 15 0 0 0 0 0 0 0 
0 0 0 0 0 0 0 0 0 
0 0 0 0 0 0 0 0 0 
0 0 0 0 0 0 0 0 0 
0 0 0 0 0 0 0 39 0 
0 222 0 0 0 19 217 46 0 
0 36 0 0 0 0 0 0 0 
0 0 50 0 0 0 0 0 0 
0 17 0 0 0 0 0 0 0 
0 0 0 0 0 0 0 0 0 
0 0 0 0 0 0 0 0 0 
0 0 0 0 0 0 0 0 0 
0 0 0 0 0 0 18 0 0 
0 0 0 0 0 0 0 0 0 
0 0 0 0 0 0 0 0 0 
0 0 0 0 0 0 0 0 0 
20 0 0 0 0 0 0 0 0 
0 0 0 0 0 0 0 0 0 
0 0 0 0 0 0 0 0 0 
0 24 0 0 0 0 0 0 0 
0 0 0 0 0 0 0 0 0 
0 0 0 74 0 0 0 0 0 
0 0 0 0 0 0 0 0 0 
0 0 6 0 0 0 0 0 56 
0 0 0 0 0 0 0 0 0 
0 0 0 0 0 0 0 0 0 
0 0 0 0 0 0 0 0 0 
0 0 0 0 0 0 0 0 0 
0 0 0 0 0 0 0 0 0 
0 0 0 0 0 0 0 0 0 
0 0 0 0 16 0 0 0 0 
0 0 0 0 0 0 0 0 0 
0 0 0 0 0 0 0 0 0 
0 0 0 0 0 0 0 0 0 
0 0 0 0 0 0 0 0 0 
0 0 0 0 0 0 0 81 0 
0 0 0 0 0 0 0 0 0 
0 0 0 0 0 0 0 0 0 
0 0 0 0 0 0 0 0 0 
0 0 0 0 0 0 0 0 0 
0 0 0 0 0 0 0 0 0 
0 0 0 0 0 0 0 0 0 
0 0 0 361 0 0 0 0 0 
0 0 0 0 0 0 0 348 0 
0 0 0 0 0 0 0 0 0 
0 0 0 0 0 0 0 0 0 
0 0 0 0 0 0 0 0 0 
0 0 0 0 0 0 0 0 361 
0 0 0 0 0 0 0 0 0 
0 0 0 0 0 0 0 0 0 
0 0 0 0 0 0 0 0 0 
0 337 0 0 0 0 0 0 0 
0 0 0 0 0 0 0 0 0 
356 0 0 0 0 0 0 0 0 
0 0 0 0 0 0 0 0 0 
0 0 0 0 0 0 0 0 0 
0 0 0 0 0 338 0 0 0 
0 0 0 0 0 0 0 0 0 
0 0 0 0 0 0 0 0 0 
0 0 0 0 0 0 0 0 0 
0 0 0 0 0 0 0 0 0 
0 0 0 0 0 0 0 0 0 
0 0 0 0 0 0 0 0 0 
0 0 0 0 0 0 0 0 220 
0 0 0 0 0 0 0 0 0 
0 0 0 0 0 0 0 0 0 
0 0 0 0 0 0 0 0 0 
0 0 0 0 0 0 0 0 0 
0 0 0 0 0 325 0 0 0 
0 0 0 0 0 0 0 0 0 
0 0 0 0 0 0 0 0 0 
0 0 0 0 0 0 0 0 0 
0 0 0 0 302 0 0 0 0 
0 0 0 0 0 0 0 0 0 
0 325 0 0 0 0 0 0 0 
0 0 0 0 0 263 0 
ClusterId 1 2500 long
0 0 0 0 0 0 0 0 0 
0 0 0 0 0 0 0 0 0 
0 0 0 0 0 0 0 0 0 
0 0 0 0 0 0 0 0 0 
0 0 0 0 0 0 0 0 0 
0 0 0 0 0 0 0 0 0 
0 0 0 0 0 0 0 0 0 
0 0 0 0 0 0 0 0 0 
345 345 0 0 0 0 0 0 0 
0 0 0 0 0 0 0 0 0 
0 0 0 0 0 0 0 0 0 
0 0 0 0 0 0 0 0 0 
0 0 0 0 0 0 0 0 0 
0 0 0 0 0 0 0 0 0 
0 0 0 0 0 0 0 0 0 
0 0 0 0 0 0 0 0 0 
0 0 0 0 0 0 0 0 0 
0 0 0 0 0 0 0 0 0 
0 0 0 0 0 0 0 0 0 
0 0 0 0 0 0 0 0 0 
0 0 0 0 0 0 0 0 339 
0 0 0 0 0 0 0 0 0 
0 0 0 0 0 0 0 0 0 
0 0 0 0 326 0 0 0 0 
0 0 0 0 0 0 0 0 0 
0 0 0 0 0 0 0 0 0 
0 0 0 0 339 0 0 0 0 
0 0 0 0 0 0 0 0 0 
0 0 0 0 0 0 0 0 0 
0 0 0 0 0 275 0 0 0 
0 0 0 0 0 0 0 0 0 
0 0 0 0 0 0 0 0 0 
0 0 0 0 0 0 0 0 0 
0 0 0 0 0 0 0 360 0 
0 0 0 0 0 0 0 0 0 
0 0 0 0 0 0 0 0 0 
0 0 0 0 0 0 0 0 0 
0 0 0 0 0 0 0 0 0 
0 0 0 0 0 0 0 0 359 
0 0 0 0 0 0 0 0 0 
214 0 0 0 0 0 0 0 0 
0 0 0 77 0 0 0 0 0 
0 0 0 0 0 0 0 0 0 
0 0 0 0 0 0 0 0 0 
0 0 0 0 0 0 0 0 0 
0 0 0 63 0 0 0 0 0 
0 0 0 0 0 0 0 0 78 
0 0 0 0 0 0 43 0 0 
0 0 0 11 0 0 0 0 0 
0 0 0 0 0 0 0 0 0 
0 0 0 0 0 0 0 0 0 
0 0 0 62 0 0 0 0 0 
0 0 0 0 354 0 0 0 0 
0 0 0 0 215 0 0 0 0 
0 0 0 71 0 0 0 0 0 
0 0 0 0 0 0 0 0 0 
0 218 0 0 0 0 0 38 0 
0 0 0 0 0 0 0 0 0 
0 0 0 0 0 0 0 0 67 
100 0 0 0 0 0 0 0 0 
0 0 0 0 0 0 0 0 0 
0 0 0 0 0 0 0 0 0 
0 0 0 0 0 0 0 96 0 
0 25 0 0 0 0 0 0 0 
0 0 0 0 0 0 0 0 0 
0 0 0 0 0 0 0 0 0 
0 0 0 0 340 0 0 0 0 
0 0 0 0 0 0 0 0 0 
0 0 0 0 0 0 0 0 0 
0 0 0 0 0 0 0 352 68 
0 0 0 0 0 0 0 0 0 
31 0 7 0 0 0 0 0 0 
0 0 0 0 0 0 0 0 0 
0 0 0 0 69 0 0 0 0 
22 0 0 0 0 0 0 0 0 
0 0 0 0 0 0 0 0 33 
0 0 0 0 0 0 0 0 0 
0 0 0 0 0 0 0 0 0 
0 0 0 0 0 0 0 0 0 
0 0 0 0 8 0 61 0 0 
0 0 60 0 0 0 0 0 0 
0 0 0 0 0 0 0 0 0 
0 0 0 0 0 0 0 0 0 
0 0 0 0 0 0 0 0 0 
0 0 0 0 0 23 0 0 0 
0 0 0 0 85 0 0 0 0 
0 0 0 0 0 0 0 0 0 
0 0 0 0 0 0 0 0 358 
0 0 0 0 0 0 0 0 0 
0 0 0 0 0 0 0 0 0 
5 0 0 0 0 0 0 0 0 
0 0 0 0 0 0 0 0 0 
0 0 0 0 0 0 0 86 53 
0 0 0 0 0 0 0 0 0 
0 0 332 0 0 0 0 0 0 
0 0 0 0 0 0 0 0 0 
0 0 0 0 0 72 0 0 0 
0 0 0 0 0 0 0 0 0 
0 0 0 0 0 0 0 0 0 
0 0 0 0 0 0 0 0 0 
0 0 0 0 0 0 0 0 59 
0 0 0 0 0 0 0 0 0 
0 0 0 0 0 97 0 0 0 
0 0 0 0 0 0 0 51 0 
0 0 0 0 0 221 0 0 0 
0 0 0 0 0 0 0 0 0 
0 0 0 0 0 0 0 0 0 
212 0 0 0 0 0 54 0 0 
0 0 0 70 0 355 0 0 0 
3 0 0 0 0 0 0 0 0 
0 0 0 0 0 0 0 0 0 
0 0 0 0 0 0 0 0 0 
0 0 0 0 0 0 0 0 0 
0 0 42 57 0 0 0 0 0 
0 76 0 0 0 0 0 0 0 
0 0 0 0 0 0 0 0 0 
0 0 0 0 0 0 216 0 0 
0 219 0 0 0 0 0 0 0 
0 0 0 0 66 0 0 0 0 
0 0 0 0 0 0 0 0 0 
0 0 0 0 0 0 0 0 0 
0 0 0 0 0 0 0 0 0 
0 0 0 0 0 0 0 0 0 
230 0 0 0 0 0 0 0 0 
0 0 0 0 0 0 0 0 0 
0 84 0 0 0 0 0 0 0 
0 0 40 0 0 0 0 0 0 
0 0 0 0 0 0 0 0 0 
0 0 0 0 0 230 0 0 0 
0 0 0 0 0 0 0 0 0 
0 0 0 0 0 0 0 34 0 
0 0 0 0 0 0 0 88 0 
0 0 82 0 0 0 0 0 0 
0 0 0 0 0 0 0 0 0 
0 230 0 0 0 0 0 44 0 
0 0 0 29 0 0 0 0 0 
0 2 91 0 0 0 0 0 0 
0 0 0 0 0 0 0 0 0 
0 0 0 0 0 0 0 0 0 
0 0 0 0 0 0 0 0 0 
0 0 0 0 0 0 0 0 0 
0 0 0 293 0 0 0 0 0 
0 0 0 0 0 0 0 27 0 
0 0 0 0 0 0 0 0 0 
0 0 0 0 0 0 0 0 0 
0 0 0 0 0 0 0 0 0 
0 0 0 0 98 0 0 0 0 
10 0 0 0 0 0 0 0 0 
0 0 0 0 0 0 4 58 0 
0 0 0 233 0 0 0 0 0 
0 0 0 347 0 0 0 73 0 
0 0 0 0 75 0 0 0 0 
0 0 0 0 0 0 13 0 0 
55 0 0 341 0 0 0 0 0 
32 0 0 0 0 0 0 0 0 
0 0 0 0 0 0 0 0 0 
0 0 0 0 0 0 0 0 0 
0 0 0 0 0 0 0 0 0 
0 0 0 0 0 0 0 0 0 
0 0 0 0 0 0 0 0 49 
0 0 353 0 0 0 0 0 0 
0 0 0 0 0 0 0 0 0 
0 0 0 0 0 0 0 0 0 
0 0 0 0 0 0 0 0 0 
0 0 47 0 0 0 0 89 0 
0 0 0 37 0 0 0 30 0 
0 0 0 0 0 0 0 0 0 
0 0 0 0 0 0 0 0 0 
0 0 0 0 0 0 0 0 0 
0 0 0 0 0 0 0 0 0 
0 0 0 0 0 0 0 0 0 
0 0 0 0 0 0 0 0 0 
0 0 0 0 0 0 0 0 0 
0 0 0 0 0 0 0 0 95 
0 0 0 0 0 90 0 0 0 
0 0 0 48 0 0 0 0 0 
0 0 0 0 0 0 0 0 0 
0 0 0 0 0 0 0 0 0 
0 0 0 0 0 0 0 0 0 
83 0 0 0 0 0 52 87 0 
0 0 0 14 0 0 0 0 0 
0 0 213 0 0 0 357 0 0 
0 0 0 0 0 0 0 0 0 
0 0 0 0 0 0 0 0 0 
0 0 0 0 0 9 0 0 0 
0 0 0 0 0 0 21 0 0 
0 0 0 0 0 0 99 0 0 
0 0 350 0 0 0 0 0 64 
0 0 0 0 0 0 0 0 0 
0 0 0 0 0 0 0 0 351 
0 0 26 0 0 0 0 0 0 
0 80 0 0 45 0 211 0 0 
0 0 0 0 0 0 0 0 0 
0 0 0 0 0 0 0 0 0 
0 0 0 0 0 0 0 0 0 
0 0 0 0 0 0 0 0 0 
0 0 0 0 1 0 0 0 0 
0 0 0 0 0 94 0 0 0 
0 0 0 0 0 0 0 0 93 
35 0 0 0 0 0 0 0 0 
223 0 0 0 0 0 0 0 0 
0 0 0 0 0 0 0 0 0 
344 15 0 0 0 0 0 0 0 
0 0 0 0 0 0 0 0 0 
0 0 0 0 0 0 0 0 0 
0 0 0 0 0 0 0 0 0 
0 0 0 0 0 0 0 39 0 
0 222 0 0 0 19 217 46 0 
0 36 0 0 0 0 0 0 0 
0 0 50 0 0 0 0 0 0 
0 17 0 0 0 0 0 0 0 
0 0 0 0 0 0 0 0 0 
0 0 0 0 0 0 0 0 0 
0 0 0 0 0 0 0 0 0 
0 0 0 0 0 0 18 0 0 
0 0 0 0 0 0 0 0 0 
0 0 0 0 0 0 0 0 0 
0 0 0 0 0 0 0 0 0 
20 0 0 0 0 0 0 0 0 
0 0 0 0 0 0 0 0 0 
0 0 0 0 0 0 0 0 0 
0 24 0 0 0 0 0 0 0 
0 0 0 0 0 0 0 0 0 
0 0 0 74 0 0 0 0 0 
0 0 0 0 0 0 0 0 0 
0 0 6 0 0 0 0 0 56 
0 0 0 0 0 0 0 0 0 
0 0 0 0 0 0 0 0 0 
0 0 0 0 0 0 0 0 0 
0 0 0 0 0 0 0 0 0 
0 0 0 0 0 0 0 0 0 
0 0 0 0 0 0 0 0 0 
0 0 0 0 16 0 0 0 0 
0 0 0 0 0 0 0 0 0 
0 0 0 0 0 0 0 0 0 
0 0 0 0 0 0 0 0 0 
0 0 0 0 0 0 0 0 0 
0 0 0 0 0 0 0 81 0 
0 0 0 0 0 0 0 0 0 
0 0 0 0 0 0 0 0 0 
0 0 0 0 0 0 0 0 0 
0 0 0 0 0 0 0 0 0 
0 0 0 0 0 0 0 0 0 
0 0 0 0 0 0 0 0 0 
0 0 0 361 0 0 0 0 0 
0 0 0 0 0 0 0 348 0 
0 0 0 0 0 0 0 0 0 
0 0 0 0 0 0 0 0 0 
0 0 0 0 0 0 0 0 0 
0 0 0 0 0 0 0 0 361 
0 0 0 0 0 0 0 0 0 
0 0 0 0 0 0 0 0 0 
0 0 0 0 0 0 0 0 0 
0 337 0 0 0 0 0 0 0 
0 0 0 0 0 0 0 0 0 
356 0 0 0 0 0 0 0 0 
0 0 0 0 0 0 0 0 0 
0 0 0 0 0 0 0 0 0 
0 0 0 0 0 338 0 0 0 
0 0 0 0 0 0 0 0 0 
0 0 0 0 0 0 0 0 0 
0 0 0 0 0 0 0 0 0 
0 0 0 0 0 0 0 0 0 
0 0 0 0 0 0 0 0 0 
0 0 0 0 0 0 0 0 0 
0 0 0 0 0 0 0 0 220 
0 0 0 0 0 0 0 0 0 
0 0 0 0 0 0 0 0 0 
0 0 0 0 0 0 0 0 0 
0 0 0 0 0 0 0 0 0 
0 0 0 0 0 325 0 0 0 
0 0 0 0 0 0 0 0 0 
0 0 0 0 0 0 0 0 0 
0 0 0 0 0 0 0 0 0 
0 0 0 0 302 0 0 0 0 
0 0 0 0 0 0 0 0 0 
0 325 0 0 0 0 0 0 0 
0 0 0 0 0 263 0 
cytokine 1 2500 double
0 0 0 0 0 0 0 0 0 
0 0 0 0 0 0 0 0 0 
0 0 0 0 0 0 0 0 0 
0 0 0 0 0 0 0 0 0 
0 0 0 0 0 0 0 0 0 
0 0 0 0 0 0 0 0 0 
0 0 0 0 0 0 0 0 0 
0 0 0 0 0 0 0 0 0 
0 0 0 0 0 0 0 0 0 
0 0 0 0 0 0 0 0 0 
0 0 0 0 0 0 0 0 0 
0 0 0 0 0 0 0 0 0 
0 0 0 0 0 0 0 0 0 
0 0 0 0 0 0 0 0 0 
0 0 0 0 0 0 0 0 0 
0 0 0 0 0 0 0 0 0 
0 0 0 0 0 0 0 0 0 
0 0 0 0 0 0 0 0 0 
0 0 0 0 0 0 0 0 0 
0 0 0 0 0 0 0 0 0 
0 0 0 0 0 0 0 0 0 
0 0 0 0 0 0 0 0 0 
0 0 0 0 0 0 0 0 0 
0 0 0 0 0 0 0 0 0 
0 0 0 0 0 0 0 0 0 
0 0 0 0 0 0 0 0 0 
0 0 0 0 0 0 0 0 0 
0 0 0 0 0 0 0 0 0 
0 0 0 0 0 0 0 0 0 
0 0 0 0 0 0 0 0 0 
0 0 0 0 0 0 0 0 0 
0 0 0 0 0 0 0 0 0 
0 0 0 0 0 0 0 0 0 
0 0 0 0 0 0 0 0 0 
0 0 0 0 0 0 0 0 0 
0 0 0 0 0 0 0 0 0 
0 0 0 0 0 0 0 0 0 
0 0 0 0 0 0 0 0 0 
0 0 0 0 0 0 0 0 0 
0 0 0 0 0 0 0 0 0 
0 0 0 0 0 0 0 0 0 
0 0 0 0 0 0 0 0 0 
0 0 0 0 0 0 0 0 0 
0 0 0 0 0 0 0 0 0 
0 0 0 0 0 0 0 0 0 
0 0 0 0 0 0 0 0 0 
0 0 0 0 0 0 0 0 0 
0 0 0 0 0 0 0 0 0 
0 0 0 0 0 0 0 0 0 
0 0 0 0 0 0 0 0 0 
0 0 0 0 0 0 0 0 0 
0 0 0 0 0 0 0 0 0 
0 0 0 0 0 0 0 0 0 
0 0 0 0 0 0 0 0 0 
0 0 0 0 0 0 0 0 0 
0 0 0 0 0 0 0 0 0 
0 0 0 0 0 0 0 0 0 
0 0 0 0 0 0 0 0 0 
0 0 0 0 0 0 0 0 0 
0 0 0 0 0 0 0 0 0 
0 0 0 0 0 0 0 0 0 
0 0 0 0 0 0 0 0 0 
0 0 0 0 0 0 0 0 0 
0 0 0 0 0 0 0 0 0 
0 0 0 0 0 0 0 0 0 
0 0 0 0 0 0 0 0 0 
0 0 0 0 0 0 0 0 0 
0 0 0 0 0 0 0 0 0 
0 0 0 0 0 0 0 0 0 
0 0 0 0 0 0 0 0 0 
0 0 0 0 0 0 0 0 0 
0 0 0 0 0 0 0 0 0 
0 0 0 0 0 0 0 0 0 
0 0 0 0 0 0 0 0 0 
0 0 0 0 0 0 0 0 0 
0 0 0 0 0 0 0 0 0 
0 0 0 0 0 0 0 0 0 
0 0 0 0 0 0 0 0 0 
0 0 0 0 0 0 0 0 0 
0 0 0 0 0 0 0 0 0 
0 0 0 0 0 0 0 0 0 
0 0 0 0 0 0 0 0 0 
0 0 0 0 0 0 0 0 0 
0 0 0 0 0 0 0 0 0 
0 0 0 0 0 0 0 0 0 
0 0 0 0 0 0 0 0 0 
0 0 0 0 0 0 0 0 0 
0 0 0 0 0 0 0 0 0 
0 0 0 0 0 0 0 0 0 
0 0 0 0 0 0 0 0 0 
0 0 0 0 0 0 0 0 0 
0 0 0 0 0 0 0 0 0 
0 0 0 0 0 0 0 0 0 
0 0 0 0 0 0 0 0 0 
0 0 0 0 0 0 0 0 0 
0 0 0 0 0 0 0 0 0 
0 0 0 0 0 0 0 0 0 
0 0 0 0 0 0 0 0 0 
0 0 0 0 0 0 0 0 0 
0 0 0 0 0 0 0 0 0 
0 0 0 0 0 0 0 0 0 
0 0 0 0 0 0 0 0 0 
0 0 0 0 0 0 0 0 0 
0 0 0 0 0 0 0 0 0 
0 0 0 0 0 0 0 0 0 
0 0 0 0 0 0 0 0 0 
0 0 0 0 0 0 0 0 0 
0 0 0 0 0 0 0 0 0 
0 0 0 0 0 0 0 0 0 
0 0 0 0 0 0 0 0 0 
0 0 0 0 0 0 0 0 0 
0 0 0 0 0 0 0 0 0 
0 0 0 0 0 0 0 0 0 
0 0 0 0 0 0 0 0 0 
0 0 0 0 0 0 0 0 0 
0 0 0 0 0 0 0 0 0 
0 0 0 0 0 0 0 0 0 
0 0 0 0 0 0 0 0 0 
0 0 0 0 0 0 0 0 0 
0 0 0 0 0 0 0 0 0 
0 0 0 0 0 0 0 0 0 
0 0 0 0 0 0 0 0 0 
0 0 0 0 0 0 0 0 0 
0 0 0 0 0 0 0 0 0 
0 0 0 0 0 0 0 0 0 
0 0 0 0 0 0 0 0 0 
0 0 0 0 0 0 0 0 0 
0 0 0 0 0 0 0 0 0 
0 0 0 0 0 0 0 0 0 
0 0 0 0 0 0 0 0 0 
0 0 0 0 0 0 0 0 0 
0 0 0 0 0 0 0 0 0 
0 0 0 0 0 0 0 0 0 
0 0 0 0 0 0 0 0 0 
0 0 0 0 0 0 0 0 0 
0 0 0 0 0 0 0 0 0 
0 0 0 0 0 0 0 0 0 
0 0 0 0 0 0 0 0 0 
0 0 0 0 0 0 0 0 0 
0 0 0 0 0 0 0 0 0 
0 0 0 0 0 0 0 0 0 
0 0 0 0 0 0 0 0 0 
0 0 0 0 0 0 0 0 0 
0 0 0 0 0 0 0 0 0 
0 0 0 0 0 0 0 0 0 
0 0 0 0 0 0 0 0 0 
0 0 0 0 0 0 0 0 0 
0 0 0 0 0 0 0 0 0 
0 0 0 0 0 0 0 0 0 
0 0 0 0 0 0 0 0 0 
0 0 0 0 0 0 0 0 0 
0 0 0 0 0 0 0 0 0 
0 0 0 0 0 0 0 0 0 
0 0 0 0 0 0 0 0 0 
0 0 0 0 0 0 0 0 0 
0 0 0 0 0 0 0 0 0 
0 0 0 0 0 0 0 0 0 
0 0 0 0 0 0 0 0 0 
0 0 0 0 0 0 0 0 0 
0 0 0 0 0 0 0 0 0 
0 0 0 0 0 0 0 0 0 
0 0 0 0 0 0 0 0 0 
0 0 0 0 0 0 0 0 0 
0 0 0 0 0 0 0 0 0 
0 0 0 0 0 0 0 0 0 
0 0 0 0 0 0 0 0 0 
0 0 0 0 0 0 0 0 0 
0 0 0 0 0 0 0 0 0 
0 0 0 0 0 0 0 0 0 
0 0 0 0 0 0 0 0 0 
0 0 0 0 0 0 0 0 0 
0 0 0 0 0 0 0 0 0 
0 0 0 0 0 0 0 0 0 
0 0 0 0 0 0 0 0 0 
0 0 0 0 0 0 0 0 0 
0 0 0 0 0 0 0 0 0 
0 0 0 0 0 0 0 0 0 
0 0 0 0 0 0 0 0 0 
0 0 0 0 0 0 0 0 0 
0 0 0 0 0 0 0 0 0 
0 0 0 0 0 0 0 0 0 
0 0 0 0 0 0 0 0 0 
0 0 0 0 0 0 0 0 0 
0 0 0 0 0 0 0 0 0 
0 0 0 0 0 0 0 0 0 
0 0 0 0 0 0 0 0 0 
0 0 0 0 0 0 0 0 0 
0 0 0 0 0 0 0 0 0 
0 0 0 0 0 0 0 0 0 
0 0 0 0 0 0 0 0 0 
0 0 0 0 0 0 0 0 0 
0 0 0 0 0 0 0 0 0 
0 0 0 0 0 0 0 0 0 
0 0 0 0 0 0 0 0 0 
0 0 0 0 0 0 0 0 0 
0 0 0 0 0 0 0 0 0 
0 0 0 0 0 0 0 0 0 
0 0 0 0 0 0 0 0 0 
0 0 0 0 0 0 0 0 0 
0 0 0 0 0 0 0 0 0 
0 0 0 0 0 0 0 0 0 
0 0 0 0 0 0 0 0 0 
0 0 0 0 0 0 0 0 0 
0 0 0 0 0 0 0 0 0 
0 0 0 0 0 0 0 0 0 
0 0 0 0 0 0 0 0 0 
0 0 0 0 0 0 0 0 0 
0 0 0 0 0 0 0 0 0 
0 0 0 0 0 0 0 0 0 
0 0 0 0 0 0 0 0 0 
0 0 0 0 0 0 0 0 0 
0 0 0 0 0 0 0 0 0 
0 0 0 0 0 0 0 0 0 
0 0 0 0 0 0 0 0 0 
0 0 0 0 0 0 0 0 0 
0 0 0 0 0 0 0 0 0 
0 0 0 0 0 0 0 0 0 
0 0 0 0 0 0 0 0 0 
0 0 0 0 0 0 0 0 0 
0 0 0 0 0 0 0 0 0 
0 0 0 0 0 0 0 0 0 
0 0 0 0 0 0 0 0 0 
0 0 0 0 0 0 0 0 0 
0 0 0 0 0 0 0 0 0 
0 0 0 0 0 0 0 0 0 
0 0 0 0 0 0 0 0 0 
0 0 0 0 0 0 0 0 0 
0 0 0 0 0 0 0 0 0 
0 0 0 0 0 0 0 0 0 
0 0 0 0 0 0 0 0 0 
0 0 0 0 0 0 0 0 0 
0 0 0 0 0 0 0 0 0 
0 0 0 0 0 0 0 0 0 
0 0 0 0 0 0 0 0 0 
0 0 0 0 0 0 0 0 0 
0 0 0 0 0 0 0 0 0 
0 0 0 0 0 0 0 0 0 
0 0 0 0 0 0 0 0 0 
0 0 0 0 0 0 0 0 0 
0 0 0 0 0 0 0 0 0 
0 0 0 0 0 0 0 0 0 
0 0 0 0 0 0 0 0 0 
0 0 0 0 0 0 0 0 0 
0 0 0 0 0 0 0 0 0 
0 0 0 0 0 0 0 0 0 
0 0 0 0 0 0 0 0 0 
0 0 0 0 0 0 0 0 0 
0 0 0 0 0 0 0 0 0 
0 0 0 0 0 0 0 0 0 
0 0 0 0 0 0 0 0 0 
0 0 0 0 0 0 0 0 0 
0 0 0 0 0 0 0 0 0 
0 0 0 0 0 0 0 0 0 
0 0 0 0 0 0 0 0 0 
0 0 0 0 0 0 0 0 0 
0 0 0 0 0 0 0 0 0 
0 0 0 0 0 0 0 0 0 
0 0 0 0 0 0 0 0 0 
0 0 0 0 0 0 0 0 0 
0 0 0 0 0 0 0 0 0 
0 0 0 0 0 0 0 0 0 
0 0 0 0 0 0 0 0 0 
0 0 0 0 0 0 0 0 0 
0 0 0 0 0 0 0 0 0 
0 0 0 0 0 0 0 0 0 
0 0 0 0 0 0 0 0 0 
0 0 0 0 0 0 0 0 0 
0 0 0 0 0 0 0 0 0 
0 0 0 0 0 0 0 0 0 
0 0 0 0 0 0 0 0 0 
0 0 0 0 0 0 0 0 0 
0 0 0 0 0 0 0 0 0 
0 0 0 0 0 0 0 0 0 
0 0 0 0 0 0 0 0 0 
0 0 0 0 0 0 0 0 0 
0 0 0 0 0 0 0 0 0 
0 0 0 0 0 0 0 0 0 
0 0 0 0 0 0 0 
il1 1 2500 double
1.114189162e-21 1.4839021776e-19 1.7422111149e-17 1.7688215284e-15 1.4955078191e-13 9.9329234074e-12 4.4898945673e-10 1.0588337318e-08 5.7200572057e-10 
1.7183900136e-11 1.1105978637e-10 3.3353424189e-12 8.5648190471e-14 2.3031650372e-12 8.7398865922e-11 1.0226810371e-10 7.519795453e-09 3.0307299426e-07 
7.8207875731e-09 9.050962646e-09 3.0201283141e-10 5.3387797655e-12 6.614756079e-14 9.6354772898e-16 3.6966855629e-14 3.4098546469e-12 2.234690627e-10 
7.8263067138e-09 2.217522832e-10 7.2817559274e-12 2.4780319463e-10 8.2810869273e-09 6.4311640458e-09 3.171739138e-07 6.1839457999e-09 6.5773289593e-11 
5.4055392974e-13 1.125530333e-12 2.1203295196e-12 1.6786542989e-10 6.5698362306e-09 1.5123409469e-10 1.910148038e-12 2.054947575e-12 1.2914593006e-10 
9.87791271e-09 3.3204801753e-07 4.7082990839e-09 3.7558210014e-11 2.2301754085e-13 2.1433435512e-20 2.9427163291e-18 3.5630687095e-16 3.7287027307e-14 
3.2425050058e-12 2.200899879e-10 1.0396821182e-08 2.5825278271e-07 1.8489826559e-08 6.8335004322e-10 7.7890325301e-09 2.2001922506e-10 5.5784122981e-12 
1.7138333808e-10 6.9181296247e-09 1.7415736908e-10 2.0115899224e-10 7.5706294567e-09 9.0025169541e-09 2.7647513434e-07 8.8031297807e-09 1.4798877401e-10 
1.746107924e-12 2.6649416655e-14 1.220499396e-12 1.1539826039e-10 7.8650392865e-09 2.9080254649e-07 7.7184205693e-09 2.3100192592e-10 8.0947621939e-09 
2.8594047308e-07 8.2236955024e-09 6.2413705315e-09 1.3133467924e-10 1.5606593708e-12 3.302737207e-12 1.1007651041e-10 1.1150367435e-10 9.5968237801e-09 
3.0593403721e-07 6.4951919398e-09 7.7761512507e-11 1.4318994601e-10 5.1285780067e-09 3.2189913668e-07 9.7956798228e-09 1.1979157943e-10 9.5350745528e-13 
5.8760738076e-15 2.0364425336e-21 2.7722226692e-19 3.389646853e-17 3.7626186075e-15 3.9361184668e-13 4.1968161585e-11 4.5647992053e-09 3.6710810036e-07 
2.904901919e-07 1.5981632018e-08 2.9704838767e-07 7.8494633016e-09 1.964552826e-10 6.9192038765e-09 3.0077637803e-07 6.9181402829e-09 8.8679182053e-11 
1.1101916608e-10 4.776473661e-10 8.9204323928e-09 2.9932312184e-10 6.0477196168e-12 8.7988467966e-14 1.0747453546e-13 8.0209398151e-12 3.9633840654e-10 
9.0241734085e-09 8.0128801372e-09 2.2376581144e-10 9.0368537306e-12 2.473629912e-10 8.2153341907e-09 2.4875362881e-10 6.8727981639e-11 1.571689068e-12 
3.4093719601e-12 2.1849928811e-10 7.7343464966e-09 3.3765874541e-09 3.5016583411e-07 9.6512984271e-09 1.694970414e-10 1.9725156231e-10 7.3262391709e-09 
2.850760461e-10 5.1285673486e-09 1.2783207826e-10 1.7575771567e-12 1.6898430965e-14 4.3614205557e-16 1.8883536567e-20 2.6049236842e-18 3.1798225645e-16 
3.3686835737e-14 2.9809030678e-12 2.0724413852e-10 1.0116067095e-08 2.6256290653e-07 1.8281800962e-08 6.871785807e-09 3.2533333183e-07 6.4232392738e-09 
7.1703705473e-11 1.718922088e-10 6.9181003148e-09 1.7144362319e-10 9.1742637792e-12 3.5560920875e-10 9.684327118e-09 8.3379614324e-09 2.3664140092e-10 
8.9236007472e-11 2.3556952829e-12 4.5300339001e-12 3.4236768975e-10 1.6128364422e-08 2.7666706615e-07 8.9150944405e-09 1.5657260211e-10 1.5372073059e-10 
2.525145093e-10 8.2154292258e-09 2.4730012482e-10 4.4493827026e-12 1.4672750862e-12 1.3151617295e-10 7.7176975921e-09 2.9085092024e-07 1.3348772754e-08 
3.1958066415e-07 5.7080233873e-09 1.5658990771e-10 7.4246893078e-09 2.9574519544e-07 7.3262373945e-09 1.4258165482e-10 2.6718299882e-12 3.6919578505e-11 
6.5454667511e-13 3.9944315352e-14 1.6031331543e-19 1.7644278626e-17 1.6224924575e-15 1.1832798196e-13 6.1323476679e-12 1.7036357047e-10 4.1565986764e-10 
1.0101391723e-08 2.4991519965e-09 6.6527228171e-09 3.1206474205e-07 6.6267693555e-09 7.6270489924e-11 2.9040608893e-12 8.5731727273e-11 4.949023396e-12 
1.7688084331e-10 9.5698977631e-09 2.7528969326e-07 3.0835056464e-07 8.3074951363e-09 7.0335057778e-09 1.7342831338e-10 9.9568464584e-11 7.3305672643e-09 
2.9603816643e-07 1.6128410607e-08 3.9939404561e-10 3.0331243073e-10 8.9248120005e-09 8.3895548286e-09 2.8594558898e-07 8.0960660398e-09 1.2215166378e-10 
4.5861630465e-11 3.5985106006e-09 2.6298097033e-10 7.7199473481e-09 3.9188730039e-10 5.6198956599e-09 1.1271661382e-10 2.0354773422e-10 7.6677411087e-09 
7.5264408039e-09 1.9730715672e-10 4.1144158393e-12 7.3833619774e-11 4.6336210424e-09 7.3920702892e-11 3.686763568e-12 8.5450718583e-18 9.0867354653e-16 
8.2008327267e-14 6.0043571677e-12 3.2319075194e-10 9.1368619337e-09 3.3857178172e-10 2.1025143848e-09 3.5633573248e-07 2.0427801672e-09 6.5670064942e-09 
1.5091514149e-10 1.8697133685e-12 5.1319334253e-14 1.9164812966e-12 5.4622022183e-11 9.320370864e-12 4.7625614563e-10 1.776951386e-08 2.9409031299e-07 
1.5236921058e-08 3.0090149039e-07 6.9194516783e-09 8.845951055e-11 1.9524121209e-10 7.3305672643e-09 3.4411296035e-10 1.5597648173e-10 8.8031706369e-09 
2.7647342904e-07 9.0542542353e-09 8.4384339516e-09 4.2866696304e-10 3.3159412716e-11 3.5954001998e-09 3.3861601878e-07 3.5999785375e-09 2.6008961651e-10 
6.05990369e-09 1.8454419937e-10 1.0510631948e-10 7.6212920419e-09 3.0455262845e-07 7.8530471015e-09 1.1110658921e-10 9.2498106397e-11 4.6347863325e-09 
3.2732302202e-07 4.6425121525e-09 2.5109436752e-10 3.9388919343e-16 3.5865180861e-14 2.6196976446e-12 1.6168849593e-10 9.1366620936e-09 2.7185922136e-07 
9.1368379529e-09 1.7796007723e-10 1.8938148827e-09 1.5275222059e-11 7.5268458133e-11 1.8630964826e-12 3.3599401608e-14 1.1575119118e-12 1.0898709019e-10 
5.599401387e-09 1.091648022e-10 1.1920970287e-11 4.2240225206e-10 8.2119218092e-09 4.1815831353e-10 6.9220260634e-09 1.7139238639e-10 2.3157862346e-12 
2.7745633482e-12 9.7285970946e-11 4.562368712e-12 5.3418844868e-12 2.9594579565e-10 8.8108862428e-09 6.8640365614e-10 1.0241907766e-08 9.8405692484e-09 
3.5932559705e-10 5.148080226e-11 3.5958025446e-09 1.0887497848e-10 6.0567639792e-09 3.1111585486e-07 6.1119931338e-09 2.1624581292e-10 9.0024183663e-09 
2.8406398656e-07 1.7455990431e-08 5.2898185832e-10 5.6058602205e-09 1.8295864823e-10 4.6436130496e-09 4.9342424591e-10 1.0544152218e-08 2.4794202742e-14 
1.8511297096e-12 7.4785948267e-11 7.8992437591e-12 3.2453983945e-10 9.1377900802e-09 3.2322511334e-10 6.0960910798e-12 6.7746971227e-12 7.6520753167e-14 
6.2041365968e-13 1.8675772056e-14 3.8613819715e-13 5.4511933162e-11 5.6003846005e-09 3.1648650634e-07 5.600387265e-09 5.4670400151e-11 6.5771264303e-12 
1.2295921226e-10 6.1867251773e-12 8.5761175939e-11 2.2747849611e-12 3.3429005684e-14 4.7421915434e-14 9.1903177776e-13 4.5335785093e-14 1.258880695e-13 
7.8359150765e-12 3.4030125939e-10 9.9446992863e-09 2.7233616606e-07 2.7709299388e-07 9.6468095734e-09 1.7859518031e-10 2.4640870941e-11 3.3357830387e-12 
1.2978453034e-10 6.1643103955e-09 5.7275495458e-09 1.1723386151e-10 4.3446748976e-10 1.7359335303e-08 2.8162361332e-07 1.4063120446e-08 3.165570206e-07 
5.6040154739e-09 3.0084187919e-10 1.0415297957e-08 2.7520636081e-07 1.8667047075e-12 1.4938268678e-10 6.494988547e-09 1.535823968e-10 1.3289515322e-10 
2.7481034115e-10 9.3546238464e-12 1.7044152819e-13 2.1945581813e-14 3.4855048437e-16 4.113259331e-15 2.523504644e-16 2.1084982786e-14 2.6356722794e-12 
2.3753224387e-10 1.1654245569e-08 2.3753227163e-10 2.6374306385e-12 8.802005213e-14 1.3027678979e-12 6.521495041e-14 7.5906132508e-13 2.305618939e-14 
7.8240033538e-14 2.0029455525e-12 8.4827605281e-14 1.9606129752e-15 2.5119170744e-15 1.7523146562e-13 9.5674553349e-12 3.8676009617e-10 1.0114948878e-08 
9.8366266243e-09 3.5894562322e-10 7.0266609371e-12 4.7266578672e-12 1.3506591678e-10 6.0497662435e-11 5.663279623e-09 3.1642369436e-07 5.5991100645e-09 
6.756622345e-11 6.3693311736e-10 1.6179503959e-08 6.3359950619e-10 5.607376341e-09 1.0983738918e-10 8.6995313731e-11 7.0516805728e-09 3.2286325791e-07 
7.5324628479e-11 6.4949703393e-09 3.0590427968e-07 6.7708465501e-09 8.3889846181e-09 7.9630702032e-09 2.2238082209e-10 3.3302160942e-12 3.6398357608e-14 
3.2020974134e-16 4.1845058795e-17 3.0555025859e-15 4.9315814019e-13 6.4306913961e-11 6.0564975257e-09 3.1116917398e-07 6.0564975257e-09 6.4306934777e-11 
4.9373450207e-13 1.3990554151e-14 5.8107074281e-16 6.9601256318e-15 1.1701487761e-13 6.0042062468e-12 1.6167177319e-10 6.0058147691e-12 1.1701842837e-13 