# vtk DataFile Version 5.1
vtk output
ASCII
DATASET STRUCTURED_POINTS
DIMENSIONS 50 50 1
SPACING 1 1 1
ORIGIN 0 0 0
POINT_DATA 2500
FIELD FieldData 10
CellType 1 2500 char
0 0 0 0 0 0 0 0 0 
0 0 0 0 3 0 0 0 0 
0 0 2 0 0 0 0 0 0 
0 0 0 0 0 0 0 0 0 
0 0 0 0 0 0 0 0 0 
0 0 0 0 0 0 0 0 0 
3 0 0 0 0 0 0 0 0 
0 0 0 3 0 0 0 0 0 
0 0 0 0 0 0 0 0 0 
3 0 0 3 0 0 0 0 0 
0 0 0 0 0 0 0 0 0 
0 0 3 0 0 0 0 0 7 
0 0 0 0 0 0 0 0 0 
0 0 0 0 0 0 7 0 0 
0 0 0 0 0 0 0 0 0 
0 2 0 0 0 0 2 0 0 
0 0 0 0 0 0 0 0 0 
0 0 0 0 0 5 0 0 0 
0 0 0 0 0 0 2 0 0 
0 0 0 0 0 0 0 0 0 
0 0 0 0 0 0 0 0 0 
0 0 0 0 0 0 0 0 0 
0 0 0 0 0 0 7 0 0 
0 0 0 0 0 0 0 0 0 
0 0 0 0 0 4 0 0 3 
0 0 0 0 0 3 0 0 0 
0 0 0 0 0 2 0 0 0 
0 0 0 0 0 0 0 0 0 
0 0 0 0 0 0 0 0 0 
0 0 0 0 0 0 0 0 0 
0 0 0 0 7 0 0 0 0 
0 0 0 0 0 0 0 0 0 
0 0 0 0 0 0 0 7 0 
0 0 0 3 0 0 0 0 0 
0 0 0 0 0 0 0 2 0 
0 0 0 0 0 0 0 0 0 
0 0 0 0 3 0 0 0 0 
0 0 0 0 0 0 0 0 0 
0 0 0 0 0 0 0 0 5 
0 0 0 0 0 0 0 0 0 
0 0 0 0 0 0 0 0 2 
0 0 0 1 0 0 0 0 0 
0 0 3 0 0 0 0 4 0 
0 0 0 0 0 0 0 0 0 
0 0 0 0 0 0 0 0 0 
0 0 0 1 0 0 0 0 0 
0 0 0 0 0 0 0 7 1 
0 0 0 2 0 0 1 0 0 
0 0 0 1 0 0 0 0 0 
2 0 0 0 0 0 0 0 0 
0 0 0 0 0 0 0 0 0 
0 0 0 1 0 0 0 0 0 
0 0 0 0 0 0 0 0 0 
0 0 0 0 0 0 0 0 0 
0 2 0 1 0 0 0 0 0 
0 0 0 0 0 0 0 0 0 
0 0 0 0 0 0 0 1 0 
0 0 0 0 0 0 0 0 0 
0 0 0 0 10 0 0 0 1 
1 0 0 2 0 0 0 0 0 
0 0 0 0 0 0 0 0 0 
0 0 0 0 0 0 0 0 0 
0 0 0 0 0 0 7 1 0 
0 1 0 0 0 0 7 4 0 
0 0 0 0 0 5 0 0 0 
0 0 0 0 0 0 0 0 0 
0 3 0 0 0 0 0 0 3 
0 0 0 0 0 0 0 0 0 
0 0 0 0 0 0 0 0 0 
3 0 0 0 0 0 0 0 1 
0 0 0 0 0 0 0 0 0 
1 0 1 0 0 0 0 0 0 
0 0 0 0 0 0 0 0 0 
4 0 0 0 1 0 0 0 0 
1 0 0 0 0 0 0 0 0 
0 0 0 0 0 0 0 0 1 
0 0 0 0 0 0 0 0 0 
0 0 0 0 0 0 0 0 0 
0 0 0 0 0 0 0 0 0 
0 0 0 0 1 2 1 0 0 
0 0 1 0 0 0 0 3 0 
0 0 0 0 0 0 0 0 0 
0 0 0 0 0 0 0 0 0 
0 0 0 3 0 0 0 0 0 
0 0 0 0 0 1 3 0 0 
0 0 0 3 1 0 0 0 0 
0 0 0 0 0 0 0 0 3 
0 0 0 3 0 0 0 0 2 
0 0 0 0 0 3 0 0 0 
0 0 0 0 3 0 0 0 0 
1 0 0 0 0 0 0 0 0 
0 0 0 0 0 0 0 0 0 
0 0 0 0 0 0 0 1 1 
0 0 0 0 0 0 0 0 5 
0 2 0 0 0 0 0 0 0 
0 0 0 0 0 0 0 0 0 
0 0 0 3 0 1 0 0 0 
0 0 0 0 3 0 0 0 0 
0 0 0 0 0 0 0 0 0 
0 2 0 0 0 0 0 0 0 
0 7 0 0 0 0 0 0 1 
5 0 0 0 0 0 0 3 3 
0 0 0 0 0 1 0 0 0 
0 0 0 0 0 0 0 1 0 
0 0 0 0 0 0 0 0 0 
0 0 0 0 0 0 0 0 0 
0 0 0 0 0 0 3 0 0 
0 0 0 0 0 0 1 0 0 
0 0 0 1 0 0 0 0 0 
1 0 0 0 0 0 0 0 0 
3 0 0 0 0 0 0 0 2 
0 0 0 0 0 0 0 0 0 
0 0 0 0 0 0 0 0 0 
0 0 1 1 0 0 0 0 0 
0 1 0 0 0 0 0 0 0 
0 0 0 0 0 0 0 0 0 
0 0 0 0 0 0 0 0 0 
7 0 0 0 0 3 0 0 0 
0 0 0 0 1 0 0 0 0 
0 0 0 0 0 0 0 0 0 
0 0 0 0 0 0 0 0 0 
0 0 0 0 0 0 0 0 0 
0 0 0 0 0 0 0 0 0 
0 0 0 0 0 0 0 0 0 
0 0 0 0 0 0 0 0 0 
0 1 0 0 0 0 0 0 0 
0 0 1 0 0 5 0 0 0 
0 0 0 0 0 4 0 0 0 
0 0 0 0 0 0 0 0 0 
0 0 0 0 0 0 0 0 0 
0 0 0 0 0 0 0 1 0 
0 0 0 0 0 0 0 1 0 
0 0 1 0 0 0 0 0 0 
0 0 0 0 0 0 0 0 0 
0 7 0 0 0 0 0 1 2 
0 0 0 1 0 0 0 0 0 
0 1 1 0 0 0 0 0 0 
0 0 0 0 0 0 0 0 0 
0 0 0 0 0 0 0 0 0 
0 3 0 0 0 0 0 0 0 
0 0 0 0 0 0 0 0 0 
0 0 0 0 0 0 0 0 0 
0 0 0 4 0 0 0 1 0 
0 2 1 0 0 0 2 0 0 
0 0 0 0 0 0 0 0 0 
0 0 0 0 0 0 0 0 0 
0 0 0 0 1 0 0 0 0 
1 0 0 0 0 0 0 0 5 
0 0 0 0 0 0 1 1 0 
0 4 0 0 7 0 0 0 0 
7 0 0 0 0 0 0 1 0 
0 0 0 0 1 0 0 0 3 
0 0 0 0 0 0 1 0 0 
1 0 0 0 0 0 0 0 0 
1 0 0 0 0 0 0 0 0 
0 0 0 0 0 3 0 0 4 
0 0 0 0 0 0 0 3 0 
0 0 0 0 0 0 0 0 0 
0 0 0 0 0 0 0 0 0 
0 0 0 0 0 0 0 0 1 
0 0 0 0 0 0 0 0 0 
0 0 0 0 4 4 0 0 7 
0 0 0 0 0 0 0 0 0 
0 0 0 0 0 0 0 0 0 
0 0 1 0 0 0 0 1 0 
0 0 0 1 0 0 0 1 0 
0 0 0 0 0 0 0 0 0 
0 0 0 0 0 0 0 0 0 
0 0 0 0 0 0 0 0 0 
0 0 0 0 0 0 0 0 0 
0 0 0 0 0 0 0 0 0 
0 0 0 0 0 3 0 0 0 
0 0 0 0 0 0 0 0 7 
0 0 0 0 0 0 0 0 1 
0 0 0 0 0 1 0 0 0 
9 0 0 1 0 0 0 0 0 
0 0 0 0 0 0 0 0 0 
0 0 0 0 0 0 0 2 0 
0 0 0 0 0 0 0 0 0 
1 0 0 0 0 0 1 1 0 
0 0 0 1 0 9 0 0 0 
0 0 0 2 0 0 0 0 0 
0 0 0 0 0 0 0 0 0 
0 7 0 0 0 0 0 0 0 
0 0 0 0 0 1 0 0 0 
0 0 0 0 0 0 1 0 0 
0 0 0 0 0 0 1 0 0 
0 0 0 0 0 0 0 0 1 
0 0 3 0 0 0 0 0 0 
0 3 0 0 7 0 0 0 0 
0 0 1 0 0 2 0 0 0 
0 1 0 0 1 0 0 0 0 
0 0 0 0 0 0 0 0 0 
0 0 0 0 0 0 0 0 0 
0 0 0 0 2 0 0 0 0 
0 0 0 0 0 0 0 0 0 
0 0 0 0 1 0 0 0 0 
0 0 0 0 0 1 0 0 2 
0 0 0 0 0 0 0 0 1 
1 0 0 0 0 0 0 0 0 
3 0 0 0 0 0 0 0 0 
0 0 0 0 0 0 0 0 0 
0 1 0 0 0 0 0 0 0 
2 0 0 0 4 0 0 0 0 
0 0 0 0 0 0 0 0 0 
0 3 0 0 0 0 0 0 0 
0 0 2 0 0 2 0 1 0 
0 0 0 3 0 1 2 1 0 
0 1 0 0 0 3 0 0 0 
0 0 1 0 0 3 0 0 0 
0 1 0 0 0 0 0 0 0 
0 0 0 0 0 0 0 0 0 
0 0 0 0 3 0 0 0 0 
0 0 0 0 0 0 0 0 0 
0 0 0 0 0 0 1 0 0 
0 0 0 0 0 0 0 0 0 
0 0 0 0 0 0 10 0 0 
0 0 3 0 0 0 0 0 0 
1 0 0 0 0 0 0 0 0 
0 0 0 0 0 0 0 0 0 
0 0 0 0 0 0 0 0 0 
0 1 0 0 0 0 0 0 0 
0 2 0 0 0 0 0 0 0 
0 2 0 1 0 0 0 0 0 
2 0 0 0 0 0 0 0 0 
0 0 1 0 0 0 0 0 1 
0 0 0 0 0 0 0 0 0 
0 0 3 0 0 0 0 0 0 
0 0 0 0 0 0 0 0 0 
0 0 0 0 0 0 0 0 0 
0 0 0 0 0 4 0 0 0 
0 0 0 0 0 0 0 0 0 
0 0 0 0 1 0 0 0 0 
0 0 0 3 0 0 0 0 0 
0 0 3 0 0 0 0 0 0 
0 0 0 0 0 0 0 0 0 
0 0 0 0 0 0 0 10 0 
0 0 0 0 0 0 0 1 0 
0 0 0 0 0 0 0 0 0 
0 0 0 0 3 0 0 0 0 
0 0 0 0 0 0 0 0 0 
0 0 0 2 0 0 0 0 0 
0 0 0 0 0 0 0 0 0 
0 0 0 0 0 0 0 0 0 
0 0 0 0 0 0 0 0 0 
0 0 0 0 0 0 3 0 0 
0 0 0 0 0 0 0 0 0 
0 0 0 0 2 0 0 0 0 
0 0 0 0 0 0 0 0 0 
0 0 0 0 0 0 0 0 0 
0 0 0 0 0 0 0 0 0 
0 0 0 0 0 0 0 0 0 
0 0 0 0 0 0 0 0 0 
0 0 0 0 0 0 0 0 0 
0 0 0 0 0 0 0 0 0 
0 0 0 0 0 0 0 0 0 
0 0 0 0 2 0 0 0 0 
0 0 0 0 0 0 0 0 0 
0 0 0 3 0 0 3 0 0 
0 0 0 0 3 0 0 0 0 
0 0 0 0 0 0 0 0 0 
0 0 0 0 0 0 0 3 0 
0 0 0 0 2 0 0 2 0 
0 7 0 0 0 0 0 0 3 
0 0 0 0 0 0 0 0 0 
0 0 0 0 0 0 3 0 0 
0 7 0 0 0 0 0 0 0 
4 0 0 0 0 0 0 0 0 
0 0 0 0 0 0 0 0 0 
0 0 0 0 0 0 0 0 0 
0 0 0 0 0 0 0 0 0 
0 0 0 0 0 0 0 7 0 
0 0 0 0 0 0 0 0 0 
0 0 0 0 0 0 0 0 0 
0 0 0 0 0 0 0 0 10 
2 0 0 0 0 0 0 0 0 
0 0 0 0 0 0 0 0 0 
0 0 0 0 0 0 0 
CellId 1 2500 long
0 0 0 0 0 0 0 0 0 
0 0 0 0 261 0 0 0 0 
0 0 123 0 0 0 0 0 0 
0 0 0 0 0 0 0 0 0 
0 0 0 0 0 0 0 0 0 
0 0 0 0 0 0 0 0 0 
266 0 0 0 0 0 0 0 0 
0 0 0 296 0 0 0 0 0 
0 0 0 0 0 0 0 0 0 
320 0 0 328 0 0 0 0 0 
0 0 0 0 0 0 0 0 0 
0 0 314 0 0 0 0 0 317 
0 0 0 0 0 0 0 0 0 
0 0 0 0 0 0 294 0 0 
0 0 0 0 0 0 0 0 0 
0 170 0 0 0 0 168 0 0 
0 0 0 0 0 0 0 0 0 
0 0 0 0 0 160 0 0 0 
0 0 0 0 0 0 169 0 0 
0 0 0 0 0 0 0 0 0 
0 0 0 0 0 0 0 0 0 
0 0 0 0 0 0 0 0 0 
0 0 0 0 0 0 311 0 0 
0 0 0 0 0 0 0 0 0 
0 0 0 0 0 212 0 0 238 
0 0 0 0 0 316 0 0 0 
0 0 0 0 0 156 0 0 0 
0 0 0 0 0 0 0 0 0 
0 0 0 0 0 0 0 0 0 
0 0 0 0 0 0 0 0 0 
0 0 0 0 264 0 0 0 0 
0 0 0 0 0 0 0 0 0 
0 0 0 0 0 0 0 235 0 
0 0 0 292 0 0 0 0 0 
0 0 0 0 0 0 0 195 0 
0 0 0 0 0 0 0 0 0 
0 0 0 0 287 0 0 0 0 
0 0 0 0 0 0 0 0 0 
0 0 0 0 0 0 0 0 181 
0 0 0 0 0 0 0 0 0 
0 0 0 0 0 0 0 0 112 
0 0 0 77 0 0 0 0 0 
0 0 309 0 0 0 0 220 0 
0 0 0 0 0 0 0 0 0 
0 0 0 0 0 0 0 0 0 
0 0 0 63 0 0 0 0 0 
0 0 0 0 0 0 0 330 78 
0 0 0 151 0 0 43 0 0 
0 0 0 11 0 0 0 0 0 
126 0 0 0 0 0 0 0 0 
0 0 0 0 0 0 0 0 0 
0 0 0 62 0 0 0 0 0 
0 0 0 0 0 0 0 0 0 
0 0 0 0 0 0 0 0 0 
0 147 0 71 0 0 0 0 0 
0 0 0 0 0 0 0 0 0 
0 0 0 0 0 0 0 38 0 
0 0 0 0 0 0 0 0 0 
0 0 0 0 223 0 0 0 67 
100 0 0 175 0 0 0 0 0 
0 0 0 0 0 0 0 0 0 
0 0 0 0 0 0 0 0 0 
0 0 0 0 0 0 303 96 0 
0 25 0 0 0 0 245 215 0 
0 0 0 0 0 136 0 0 0 
0 0 0 0 0 0 0 0 0 
0 281 0 0 0 0 0 0 230 
0 0 0 0 0 0 0 0 0 
0 0 0 0 0 0 0 0 0 
282 0 0 0 0 0 0 0 68 
0 0 0 0 0 0 0 0 0 
31 0 7 0 0 0 0 0 0 
0 0 0 0 0 0 0 0 0 
216 0 0 0 69 0 0 0 0 
22 0 0 0 0 0 0 0 0 
0 0 0 0 0 0 0 0 33 
0 0 0 0 0 0 0 0 0 
0 0 0 0 0 0 0 0 0 
0 0 0 0 0 0 0 0 0 
0 0 0 0 8 207 61 0 0 
0 0 60 0 0 0 0 273 0 
0 0 0 0 0 0 0 0 0 
0 0 0 0 0 0 0 0 0 
0 0 0 244 0 0 0 0 0 
0 0 0 0 0 23 295 0 0 
0 0 0 298 85 0 0 0 0 
0 0 0 0 0 0 0 0 315 
0 0 0 332 0 0 0 0 143 
0 0 0 0 0 270 0 0 0 
0 0 0 0 286 0 0 0 0 
5 0 0 0 0 0 0 0 0 
0 0 0 0 0 0 0 0 0 
0 0 0 0 0 0 0 86 53 
0 0 0 0 0 0 0 0 145 
0 200 0 0 0 0 0 0 0 
0 0 0 0 0 0 0 0 0 
0 0 0 306 0 72 0 0 0 
0 0 0 0 301 0 0 0 0 
0 0 0 0 0 0 0 0 0 
0 208 0 0 0 0 0 0 0 
0 291 0 0 0 0 0 0 59 
154 0 0 0 0 0 0 271 271 
0 0 0 0 0 97 0 0 0 
0 0 0 0 0 0 0 51 0 
0 0 0 0 0 0 0 0 0 
0 0 0 0 0 0 0 0 0 
0 0 0 0 0 0 263 0 0 
0 0 0 0 0 0 54 0 0 
0 0 0 70 0 0 0 0 0 
3 0 0 0 0 0 0 0 0 
288 0 0 0 0 0 0 0 199 
0 0 0 0 0 0 0 0 0 
0 0 0 0 0 0 0 0 0 
0 0 42 57 0 0 0 0 0 
0 76 0 0 0 0 0 0 0 
0 0 0 0 0 0 0 0 0 
0 0 0 0 0 0 0 0 0 
322 0 0 0 0 275 0 0 0 
0 0 0 0 66 0 0 0 0 
0 0 0 0 0 0 0 0 0 
0 0 0 0 0 0 0 0 0 
0 0 0 0 0 0 0 0 0 
0 0 0 0 0 0 0 0 0 
0 0 0 0 0 0 0 0 0 
0 0 0 0 0 0 0 0 0 
0 84 0 0 0 0 0 0 0 
0 0 40 0 0 140 0 0 0 
0 0 0 0 0 219 0 0 0 
0 0 0 0 0 0 0 0 0 
0 0 0 0 0 0 0 0 0 
0 0 0 0 0 0 0 34 0 
0 0 0 0 0 0 0 88 0 
0 0 82 0 0 0 0 0 0 
0 0 0 0 0 0 0 0 0 
0 268 0 0 0 0 0 44 203 
0 0 0 29 0 0 0 0 0 
0 2 91 0 0 0 0 0 0 
0 0 0 0 0 0 0 0 0 
0 0 0 0 0 0 0 0 0 
0 302 0 0 0 0 0 0 0 
0 0 0 0 0 0 0 0 0 
0 0 0 0 0 0 0 0 0 
0 0 0 211 0 0 0 27 0 
0 184 41 0 0 0 198 0 0 
0 0 0 0 0 0 0 0 0 
0 0 0 0 0 0 0 0 0 
0 0 0 0 98 0 0 0 0 
10 0 0 0 0 0 0 0 110 
0 0 0 0 0 0 4 58 0 
0 213 0 0 246 0 0 0 0 
323 0 0 0 0 0 0 73 0 
0 0 0 0 75 0 0 0 299 
0 0 0 0 0 0 13 0 0 
55 0 0 0 0 0 0 0 0 
32 0 0 0 0 0 0 0 0 
0 0 0 0 0 233 0 0 325 
0 0 0 0 0 0 0 336 0 
0 0 0 0 0 0 0 0 0 
0 0 0 0 0 0 0 0 0 
0 0 0 0 0 0 0 0 49 
0 0 0 0 0 0 0 0 0 
0 0 0 0 325 325 0 0 307 
0 0 0 0 0 0 0 0 0 
0 0 0 0 0 0 0 0 0 
0 0 47 0 0 0 0 89 0 
0 0 0 37 0 0 0 30 0 
0 0 0 0 0 0 0 0 0 
0 0 0 0 0 0 0 0 0 
0 0 0 0 0 0 0 0 0 
0 0 0 0 0 0 0 0 0 
0 0 0 0 0 0 0 0 0 
0 0 0 0 0 243 0 0 0 
0 0 0 0 0 0 0 0 260 
0 0 0 0 0 0 0 0 95 
0 0 0 0 0 90 0 0 0 
304 0 0 48 0 0 0 0 0 
0 0 0 0 0 0 0 0 0 
0 0 0 0 0 0 0 133 0 
0 0 0 0 0 0 0 0 0 
83 0 0 0 0 0 52 87 0 
0 0 0 14 0 304 0 0 0 
0 0 0 186 0 0 0 0 0 
0 0 0 0 0 0 0 0 0 
0 274 0 0 0 0 0 0 0 
0 0 0 0 0 9 0 0 0 
0 0 0 0 0 0 21 0 0 
0 0 0 0 0 0 99 0 0 
0 0 0 0 0 0 0 0 64 
0 0 267 0 0 0 0 0 0 
0 334 0 0 229 0 0 0 0 
0 0 26 0 0 179 0 0 0 
0 80 0 0 45 0 0 0 0 
0 0 0 0 0 0 0 0 0 
0 0 0 0 0 0 0 0 0 
0 0 0 0 209 0 0 0 0 
0 0 0 0 0 0 0 0 0 
0 0 0 0 1 0 0 0 0 
0 0 0 0 0 94 0 0 171 
0 0 0 0 0 0 0 0 93 
35 0 0 0 0 0 0 0 0 
331 0 0 0 0 0 0 0 0 
0 0 0 0 0 0 0 0 0 
0 15 0 0 0 0 0 0 0 
166 0 0 0 218 0 0 0 0 
0 0 0 0 0 0 0 0 0 
0 313 0 0 0 0 0 0 0 
0 0 202 0 0 197 0 39 0 
0 0 0 231 0 19 139 46 0 
0 36 0 0 0 285 0 0 0 
0 0 50 0 0 318 0 0 0 
0 17 0 0 0 0 0 0 0 
0 0 0 0 0 0 0 0 0 
0 0 0 0 290 0 0 0 0 
0 0 0 0 0 0 0 0 0 
0 0 0 0 0 0 18 0 0 
0 0 0 0 0 0 0 0 0 
0 0 0 0 0 0 326 0 0 
0 0 280 0 0 0 0 0 0 
20 0 0 0 0 0 0 0 0 
0 0 0 0 0 0 0 0 0 
0 0 0 0 0 0 0 0 0 
0 24 0 0 0 0 0 0 0 
0 204 0 0 0 0 0 0 0 
0 205 0 74 0 0 0 0 0 
121 0 0 0 0 0 0 0 0 
0 0 6 0 0 0 0 0 56 
0 0 0 0 0 0 0 0 0 
0 0 251 0 0 0 0 0 0 
0 0 0 0 0 0 0 0 0 
0 0 0 0 0 0 0 0 0 
0 0 0 0 0 217 0 0 0 
0 0 0 0 0 0 0 0 0 
0 0 0 0 16 0 0 0 0 
0 0 0 257 0 0 0 0 0 
0 0 329 0 0 0 0 0 0 
0 0 0 0 0 0 0 0 0 
0 0 0 0 0 0 0 221 0 
0 0 0 0 0 0 0 81 0 
0 0 0 0 0 0 0 0 0 
0 0 0 0 269 0 0 0 0 
0 0 0 0 0 0 0 0 0 
0 0 0 188 0 0 0 0 0 
0 0 0 0 0 0 0 0 0 
0 0 0 0 0 0 0 0 0 
0 0 0 0 0 0 0 0 0 
0 0 0 0 0 0 239 0 0 
0 0 0 0 0 0 0 0 0 
0 0 0 0 118 0 0 0 0 
0 0 0 0 0 0 0 0 0 
0 0 0 0 0 0 0 0 0 
0 0 0 0 0 0 0 0 0 
0 0 0 0 0 0 0 0 0 
0 0 0 0 0 0 0 0 0 
0 0 0 0 0 0 0 0 0 
0 0 0 0 0 0 0 0 0 
0 0 0 0 0 0 0 0 0 
0 0 0 0 125 0 0 0 0 
0 0 0 0 0 0 0 0 0 
0 0 0 327 0 0 283 0 0 
0 0 0 0 279 0 0 0 0 
0 0 0 0 0 0 0 0 0 
0 0 0 0 0 0 0 310 0 
0 0 0 0 138 0 0 196 0 
0 247 0 0 0 0 0 0 327 
0 0 0 0 0 0 0 0 0 
0 0 0 0 0 0 293 0 0 
0 312 0 0 0 0 0 0 0 
214 0 0 0 0 0 0 0 0 
0 0 0 0 0 0 0 0 0 
0 0 0 0 0 0 0 0 0 
0 0 0 0 0 0 0 0 0 
0 0 0 0 0 0 0 321 0 
0 0 0 0 0 0 0 0 0 
0 0 0 0 0 0 0 0 0 
0 0 0 0 0 0 0 0 222 
187 0 0 0 0 0 0 0 0 
0 0 0 0 0 0 0 0 0 
0 0 0 0 0 0 0 
ClusterId 1 2500 long
0 0 0 0 0 0 0 0 0 
0 0 0 0 261 0 0 0 0 
0 0 123 0 0 0 0 0 0 
0 0 0 0 0 0 0 0 0 
0 0 0 0 0 0 0 0 0 
0 0 0 0 0 0 0 0 0 
266 0 0 0 0 0 0 0 0 
0 0 0 296 0 0 0 0 0 
0 0 0 0 0 0 0 0 0 
320 0 0 328 0 0 0 0 0 
0 0 0 0 0 0 0 0 0 
0 0 314 0 0 0 0 0 317 
0 0 0 0 0 0 0 0 0 
0 0 0 0 0 0 294 0 0 
0 0 0 0 0 0 0 0 0 
0 170 0 0 0 0 168 0 0 
0 0 0 0 0 0 0 0 0 
0 0 0 0 0 160 0 0 0 
0 0 0 0 0 0 169 0 0 
0 0 0 0 0 0 0 0 0 
0 0 0 0 0 0 0 0 0 
0 0 0 0 0 0 0 0 0 
0 0 0 0 0 0 311 0 0 
0 0 0 0 0 0 0 0 0 
0 0 0 0 0 212 0 0 238 
0 0 0 0 0 316 0 0 0 
0 0 0 0 0 156 0 0 0 
0 0 0 0 0 0 0 0 0 
0 0 0 0 0 0 0 0 0 
0 0 0 0 0 0 0 0 0 
0 0 0 0 264 0 0 0 0 
0 0 0 0 0 0 0 0 0 
0 0 0 0 0 0 0 235 0 
0 0 0 292 0 0 0 0 0 
0 0 0 0 0 0 0 195 0 
0 0 0 0 0 0 0 0 0 
0 0 0 0 287 0 0 0 0 
0 0 0 0 0 0 0 0 0 
0 0 0 0 0 0 0 0 181 
0 0 0 0 0 0 0 0 0 
0 0 0 0 0 0 0 0 112 
0 0 0 77 0 0 0 0 0 
0 0 309 0 0 0 0 220 0 
0 0 0 0 0 0 0 0 0 
0 0 0 0 0 0 0 0 0 
0 0 0 63 0 0 0 0 0 
0 0 0 0 0 0 0 330 78 
0 0 0 151 0 0 43 0 0 
0 0 0 11 0 0 0 0 0 
126 0 0 0 0 0 0 0 0 
0 0 0 0 0 0 0 0 0 
0 0 0 62 0 0 0 0 0 
0 0 0 0 0 0 0 0 0 
0 0 0 0 0 0 0 0 0 
0 147 0 71 0 0 0 0 0 
0 0 0 0 0 0 0 0 0 
0 0 0 0 0 0 0 38 0 
0 0 0 0 0 0 0 0 0 
0 0 0 0 223 0 0 0 67 
100 0 0 175 0 0 0 0 0 
0 0 0 0 0 0 0 0 0 
0 0 0 0 0 0 0 0 0 
0 0 0 0 0 0 303 96 0 
0 25 0 0 0 0 245 215 0 
0 0 0 0 0 136 0 0 0 
0 0 0 0 0 0 0 0 0 
0 281 0 0 0 0 0 0 230 
0 0 0 0 0 0 0 0 0 
0 0 0 0 0 0 0 0 0 
282 0 0 0 0 0 0 0 68 
0 0 0 0 0 0 0 0 0 
31 0 7 0 0 0 0 0 0 
0 0 0 0 0 0 0 0 0 
216 0 0 0 69 0 0 0 0 
22 0 0 0 0 0 0 0 0 
0 0 0 0 0 0 0 0 33 
0 0 0 0 0 0 0 0 0 
0 0 0 0 0 0 0 0 0 
0 0 0 0 0 0 0 0 0 
0 0 0 0 8 207 61 0 0 
0 0 60 0 0 0 0 273 0 
0 0 0 0 0 0 0 0 0 
0 0 0 0 0 0 0 0 0 
0 0 0 244 0 0 0 0 0 
0 0 0 0 0 23 295 0 0 
0 0 0 298 85 0 0 0 0 
0 0 0 0 0 0 0 0 315 
0 0 0 332 0 0 0 0 143 
0 0 0 0 0 270 0 0 0 
0 0 0 0 286 0 0 0 0 
5 0 0 0 0 0 0 0 0 
0 0 0 0 0 0 0 0 0 
0 0 0 0 0 0 0 86 53 
0 0 0 0 0 0 0 0 145 
0 200 0 0 0 0 0 0 0 
0 0 0 0 0 0 0 0 0 
0 0 0 306 0 72 0 0 0 
0 0 0 0 301 0 0 0 0 
0 0 0 0 0 0 0 0 0 
0 208 0 0 0 0 0 0 0 
0 291 0 0 0 0 0 0 59 
154 0 0 0 0 0 0 271 271 
0 0 0 0 0 97 0 0 0 
0 0 0 0 0 0 0 51 0 
0 0 0 0 0 0 0 0 0 
0 0 0 0 0 0 0 0 0 
0 0 0 0 0 0 263 0 0 
0 0 0 0 0 0 54 0 0 
0 0 0 70 0 0 0 0 0 
3 0 0 0 0 0 0 0 0 
288 0 0 0 0 0 0 0 199 
0 0 0 0 0 0 0 0 0 
0 0 0 0 0 0 0 0 0 
0 0 42 57 0 0 0 0 0 
0 76 0 0 0 0 0 0 0 
0 0 0 0 0 0 0 0 0 
0 0 0 0 0 0 0 0 0 
322 0 0 0 0 275 0 0 0 
0 0 0 0 66 0 0 0 0 
0 0 0 0 0 0 0 0 0 
0 0 0 0 0 0 0 0 0 
0 0 0 0 0 0 0 0 0 
0 0 0 0 0 0 0 0 0 
0 0 0 0 0 0 0 0 0 
0 0 0 0 0 0 0 0 0 
0 84 0 0 0 0 0 0 0 
0 0 40 0 0 140 0 0 0 
0 0 0 0 0 219 0 0 0 
0 0 0 0 0 0 0 0 0 
0 0 0 0 0 0 0 0 0 
0 0 0 0 0 0 0 34 0 
0 0 0 0 0 0 0 88 0 
0 0 82 0 0 0 0 0 0 
0 0 0 0 0 0 0 0 0 
0 268 0 0 0 0 0 44 203 
0 0 0 29 0 0 0 0 0 
0 2 91 0 0 0 0 0 0 
0 0 0 0 0 0 0 0 0 
0 0 0 0 0 0 0 0 0 
0 302 0 0 0 0 0 0 0 
0 0 0 0 0 0 0 0 0 
0 0 0 0 0 0 0 0 0 
0 0 0 211 0 0 0 27 0 
0 184 41 0 0 0 198 0 0 
0 0 0 0 0 0 0 0 0 
0 0 0 0 0 0 0 0 0 
0 0 0 0 98 0 0 0 0 
10 0 0 0 0 0 0 0 110 
0 0 0 0 0 0 4 58 0 
0 213 0 0 246 0 0 0 0 
323 0 0 0 0 0 0 73 0 
0 0 0 0 75 0 0 0 299 
0 0 0 0 0 0 13 0 0 
55 0 0 0 0 0 0 0 0 
32 0 0 0 0 0 0 0 0 
0 0 0 0 0 233 0 0 325 
0 0 0 0 0 0 0 336 0 
0 0 0 0 0 0 0 0 0 
0 0 0 0 0 0 0 0 0 
0 0 0 0 0 0 0 0 49 
0 0 0 0 0 0 0 0 0 
0 0 0 0 325 325 0 0 307 
0 0 0 0 0 0 0 0 0 
0 0 0 0 0 0 0 0 0 
0 0 47 0 0 0 0 89 0 
0 0 0 37 0 0 0 30 0 
0 0 0 0 0 0 0 0 0 
0 0 0 0 0 0 0 0 0 
0 0 0 0 0 0 0 0 0 
0 0 0 0 0 0 0 0 0 
0 0 0 0 0 0 0 0 0 
0 0 0 0 0 243 0 0 0 
0 0 0 0 0 0 0 0 260 
0 0 0 0 0 0 0 0 95 
0 0 0 0 0 90 0 0 0 
304 0 0 48 0 0 0 0 0 
0 0 0 0 0 0 0 0 0 
0 0 0 0 0 0 0 133 0 
0 0 0 0 0 0 0 0 0 
83 0 0 0 0 0 52 87 0 
0 0 0 14 0 304 0 0 0 
0 0 0 186 0 0 0 0 0 
0 0 0 0 0 0 0 0 0 
0 274 0 0 0 0 0 0 0 
0 0 0 0 0 9 0 0 0 
0 0 0 0 0 0 21 0 0 
0 0 0 0 0 0 99 0 0 
0 0 0 0 0 0 0 0 64 
0 0 267 0 0 0 0 0 0 
0 334 0 0 229 0 0 0 0 
0 0 26 0 0 179 0 0 0 
0 80 0 0 45 0 0 0 0 
0 0 0 0 0 0 0 0 0 
0 0 0 0 0 0 0 0 0 
0 0 0 0 209 0 0 0 0 
0 0 0 0 0 0 0 0 0 
0 0 0 0 1 0 0 0 0 
0 0 0 0 0 94 0 0 171 
0 0 0 0 0 0 0 0 93 
35 0 0 0 0 0 0 0 0 
331 0 0 0 0 0 0 0 0 
0 0 0 0 0 0 0 0 0 
0 15 0 0 0 0 0 0 0 
166 0 0 0 218 0 0 0 0 
0 0 0 0 0 0 0 0 0 
0 313 0 0 0 0 0 0 0 
0 0 202 0 0 197 0 39 0 
0 0 0 231 0 19 139 46 0 
0 36 0 0 0 285 0 0 0 
0 0 50 0 0 318 0 0 0 
0 17 0 0 0 0 0 0 0 
0 0 0 0 0 0 0 0 0 
0 0 0 0 290 0 0 0 0 
0 0 0 0 0 0 0 0 0 
0 0 0 0 0 0 18 0 0 
0 0 0 0 0 0 0 0 0 
0 0 0 0 0 0 326 0 0 
0 0 280 0 0 0 0 0 0 
20 0 0 0 0 0 0 0 0 
0 0 0 0 0 0 0 0 0 
0 0 0 0 0 0 0 0 0 
0 24 0 0 0 0 0 0 0 
0 204 0 0 0 0 0 0 0 
0 205 0 74 0 0 0 0 0 
121 0 0 0 0 0 0 0 0 
0 0 6 0 0 0 0 0 56 
0 0 0 0 0 0 0 0 0 
0 0 251 0 0 0 0 0 0 
0 0 0 0 0 0 0 0 0 
0 0 0 0 0 0 0 0 0 
0 0 0 0 0 217 0 0 0 
0 0 0 0 0 0 0 0 0 
0 0 0 0 16 0 0 0 0 
0 0 0 257 0 0 0 0 0 
0 0 329 0 0 0 0 0 0 
0 0 0 0 0 0 0 0 0 
0 0 0 0 0 0 0 221 0 
0 0 0 0 0 0 0 81 0 
0 0 0 0 0 0 0 0 0 
0 0 0 0 269 0 0 0 0 
0 0 0 0 0 0 0 0 0 
0 0 0 188 0 0 0 0 0 
0 0 0 0 0 0 0 0 0 
0 0 0 0 0 0 0 0 0 
0 0 0 0 0 0 0 0 0 
0 0 0 0 0 0 239 0 0 
0 0 0 0 0 0 0 0 0 
0 0 0 0 118 0 0 0 0 
0 0 0 0 0 0 0 0 0 
0 0 0 0 0 0 0 0 0 
0 0 0 0 0 0 0 0 0 
0 0 0 0 0 0 0 0 0 
0 0 0 0 0 0 0 0 0 
0 0 0 0 0 0 0 0 0 
0 0 0 0 0 0 0 0 0 
0 0 0 0 0 0 0 0 0 
0 0 0 0 125 0 0 0 0 
0 0 0 0 0 0 0 0 0 
0 0 0 327 0 0 283 0 0 
0 0 0 0 279 0 0 0 0 
0 0 0 0 0 0 0 0 0 
0 0 0 0 0 0 0 310 0 
0 0 0 0 138 0 0 196 0 
0 247 0 0 0 0 0 0 327 
0 0 0 0 0 0 0 0 0 
0 0 0 0 0 0 293 0 0 
0 312 0 0 0 0 0 0 0 
214 0 0 0 0 0 0 0 0 
0 0 0 0 0 0 0 0 0 
0 0 0 0 0 0 0 0 0 
0 0 0 0 0 0 0 0 0 
0 0 0 0 0 0 0 321 0 
0 0 0 0 0 0 0 0 0 
0 0 0 0 0 0 0 0 0 
0 0 0 0 0 0 0 0 222 
187 0 0 0 0 0 0 0 0 
0 0 0 0 0 0 0 0 0 
0 0 0 0 0 0 0 
cytokine 1 2500 double
0 0 0 0 0 0 0 0 0 
0 0 0 0 0 0 0 0 0 
0 0 0 0 0 0 0 0 0 
0 0 0 0 0 0 0 0 0 
0 0 0 0 0 0 0 0 0 
0 0 0 0 0 0 0 0 0 
0 0 0 0 0 0 0 0 0 
0 0 0 0 0 0 0 0 0 
0 0 0 0 0 0 0 0 0 
0 0 0 0 0 0 0 0 0 
0 0 0 0 0 0 0 0 0 
0 0 0 0 0 0 0 0 0 
0 0 0 0 0 0 0 0 0 
0 0 0 0 0 0 0 0 0 
0 0 0 0 0 0 0 0 0 
0 0 0 0 0 0 0 0 0 
0 0 0 0 0 0 0 0 0 
0 0 0 0 0 0 0 0 0 
0 0 0 0 0 0 0 0 0 
0 0 0 0 0 0 0 0 0 
0 0 0 0 0 0 0 0 0 
0 0 0 0 0 0 0 0 0 
0 0 0 0 0 0 0 0 0 
0 0 0 0 0 0 0 0 0 
0 0 0 0 0 0 0 0 0 
0 0 0 0 0 0 0 0 0 
0 0 0 0 0 0 0 0 0 
0 0 0 0 0 0 0 0 0 
0 0 0 0 0 0 0 0 0 
0 0 0 0 0 0 0 0 0 
0 0 0 0 0 0 0 0 0 
0 0 0 0 0 0 0 0 0 
0 0 0 0 0 0 0 0 0 
0 0 0 0 0 0 0 0 0 
0 0 0 0 0 0 0 0 0 
0 0 0 0 0 0 0 0 0 
0 0 0 0 0 0 0 0 0 
0 0 0 0 0 0 0 0 0 
0 0 0 0 0 0 0 0 0 
0 0 0 0 0 0 0 0 0 
0 0 0 0 0 0 0 0 0 
0 0 0 0 0 0 0 0 0 
0 0 0 0 0 0 0 0 0 
0 0 0 0 0 0 0 0 0 
0 0 0 0 0 0 0 0 0 
0 0 0 0 0 0 0 0 0 
0 0 0 0 0 0 0 0 0 
0 0 0 0 0 0 0 0 0 
0 0 0 0 0 0 0 0 0 
0 0 0 0 0 0 0 0 0 
0 0 0 0 0 0 0 0 0 
0 0 0 0 0 0 0 0 0 
0 0 0 0 0 0 0 0 0 
0 0 0 0 0 0 0 0 0 
0 0 0 0 0 0 0 0 0 
0 0 0 0 0 0 0 0 0 
0 0 0 0 0 0 0 0 0 
0 0 0 0 0 0 0 0 0 
0 0 0 0 0 0 0 0 0 
0 0 0 0 0 0 0 0 0 
0 0 0 0 0 0 0 0 0 
0 0 0 0 0 0 0 0 0 
0 0 0 0 0 0 0 0 0 
0 0 0 0 0 0 0 0 0 
0 0 0 0 0 0 0 0 0 
0 0 0 0 0 0 0 0 0 
0 0 0 0 0 0 0 0 0 
0 0 0 0 0 0 0 0 0 
0 0 0 0 0 0 0 0 0 
0 0 0 0 0 0 0 0 0 
0 0 0 0 0 0 0 0 0 
0 0 0 0 0 0 0 0 0 
0 0 0 0 0 0 0 0 0 
0 0 0 0 0 0 0 0 0 
0 0 0 0 0 0 0 0 0 
0 0 0 0 0 0 0 0 0 
0 0 0 0 0 0 0 0 0 
0 0 0 0 0 0 0 0 0 
0 0 0 0 0 0 0 0 0 
0 0 0 0 0 0 0 0 0 
0 0 0 0 0 0 0 0 0 
0 0 0 0 0 0 0 0 0 
0 0 0 0 0 0 0 0 0 
0 0 0 0 0 0 0 0 0 
0 0 0 0 0 0 0 0 0 
0 0 0 0 0 0 0 0 0 
0 0 0 0 0 0 0 0 0 
0 0 0 0 0 0 0 0 0 
0 0 0 0 0 0 0 0 0 
0 0 0 0 0 0 0 0 0 
0 0 0 0 0 0 0 0 0 
0 0 0 0 0 0 0 0 0 
0 0 0 0 0 0 0 0 0 
0 0 0 0 0 0 0 0 0 
0 0 0 0 0 0 0 0 0 
0 0 0 0 0 0 0 0 0 
0 0 0 0 0 0 0 0 0 
0 0 0 0 0 0 0 0 0 
0 0 0 0 0 0 0 0 0 
0 0 0 0 0 0 0 0 0 
0 0 0 0 0 0 0 0 0 
0 0 0 0 0 0 0 0 0 
0 0 0 0 0 0 0 0 0 
0 0 0 0 0 0 0 0 0 
0 0 0 0 0 0 0 0 0 
0 0 0 0 0 0 0 0 0 
0 0 0 0 0 0 0 0 0 
0 0 0 0 0 0 0 0 0 
0 0 0 0 0 0 0 0 0 
0 0 0 0 0 0 0 0 0 
0 0 0 0 0 0 0 0 0 
0 0 0 0 0 0 0 0 0 
0 0 0 0 0 0 0 0 0 
0 0 0 0 0 0 0 0 0 
0 0 0 0 0 0 0 0 0 
0 0 0 0 0 0 0 0 0 
0 0 0 0 0 0 0 0 0 
0 0 0 0 0 0 0 0 0 
0 0 0 0 0 0 0 0 0 
0 0 0 0 0 0 0 0 0 
0 0 0 0 0 0 0 0 0 
0 0 0 0 0 0 0 0 0 
0 0 0 0 0 0 0 0 0 
0 0 0 0 0 0 0 0 0 
0 0 0 0 0 0 0 0 0 
0 0 0 0 0 0 0 0 0 
0 0 0 0 0 0 0 0 0 
0 0 0 0 0 0 0 0 0 
0 0 0 0 0 0 0 0 0 
0 0 0 0 0 0 0 0 0 
0 0 0 0 0 0 0 0 0 
0 0 0 0 0 0 0 0 0 
0 0 0 0 0 0 0 0 0 
0 0 0 0 0 0 0 0 0 
0 0 0 0 0 0 0 0 0 
0 0 0 0 0 0 0 0 0 
0 0 0 0 0 0 0 0 0 
0 0 0 0 0 0 0 0 0 
0 0 0 0 0 0 0 0 0 
0 0 0 0 0 0 0 0 0 
0 0 0 0 0 0 0 0 0 
0 0 0 0 0 0 0 0 0 
0 0 0 0 0 0 0 0 0 
0 0 0 0 0 0 0 0 0 
0 0 0 0 0 0 0 0 0 
0 0 0 0 0 0 0 0 0 
0 0 0 0 0 0 0 0 0 
0 0 0 0 0 0 0 0 0 
0 0 0 0 0 0 0 0 0 
0 0 0 0 0 0 0 0 0 
0 0 0 0 0 0 0 0 0 
0 0 0 0 0 0 0 0 0 
0 0 0 0 0 0 0 0 0 
0 0 0 0 0 0 0 0 0 
0 0 0 0 0 0 0 0 0 
0 0 0 0 0 0 0 0 0 
0 0 0 0 0 0 0 0 0 
0 0 0 0 0 0 0 0 0 
0 0 0 0 0 0 0 0 0 
0 0 0 0 0 0 0 0 0 
0 0 0 0 0 0 0 0 0 
0 0 0 0 0 0 0 0 0 
0 0 0 0 0 0 0 0 0 
0 0 0 0 0 0 0 0 0 
0 0 0 0 0 0 0 0 0 
0 0 0 0 0 0 0 0 0 
0 0 0 0 0 0 0 0 0 
0 0 0 0 0 0 0 0 0 
0 0 0 0 0 0 0 0 0 
0 0 0 0 0 0 0 0 0 
0 0 0 0 0 0 0 0 0 
0 0 0 0 0 0 0 0 0 
0 0 0 0 0 0 0 0 0 
0 0 0 0 0 0 0 0 0 
0 0 0 0 0 0 0 0 0 
0 0 0 0 0 0 0 0 0 
0 0 0 0 0 0 0 0 0 
0 0 0 0 0 0 0 0 0 
0 0 0 0 0 0 0 0 0 
0 0 0 0 0 0 0 0 0 
0 0 0 0 0 0 0 0 0 
0 0 0 0 0 0 0 0 0 
0 0 0 0 0 0 0 0 0 
0 0 0 0 0 0 0 0 0 
0 0 0 0 0 0 0 0 0 
0 0 0 0 0 0 0 0 0 
0 0 0 0 0 0 0 0 0 
0 0 0 0 0 0 0 0 0 
0 0 0 0 0 0 0 0 0 
0 0 0 0 0 0 0 0 0 
0 0 0 0 0 0 0 0 0 
0 0 0 0 0 0 0 0 0 
0 0 0 0 0 0 0 0 0 
0 0 0 0 0 0 0 0 0 
0 0 0 0 0 0 0 0 0 
0 0 0 0 0 0 0 0 0 
0 0 0 0 0 0 0 0 0 
0 0 0 0 0 0 0 0 0 
0 0 0 0 0 0 0 0 0 
0 0 0 0 0 0 0 0 0 
0 0 0 0 0 0 0 0 0 
0 0 0 0 0 0 0 0 0 
0 0 0 0 0 0 0 0 0 
0 0 0 0 0 0 0 0 0 
0 0 0 0 0 0 0 0 0 
0 0 0 0 0 0 0 0 0 
0 0 0 0 0 0 0 0 0 
0 0 0 0 0 0 0 0 0 
0 0 0 0 0 0 0 0 0 
0 0 0 0 0 0 0 0 0 
0 0 0 0 0 0 0 0 0 
0 0 0 0 0 0 0 0 0 
0 0 0 0 0 0 0 0 0 
0 0 0 0 0 0 0 0 0 
0 0 0 0 0 0 0 0 0 
0 0 0 0 0 0 0 0 0 
0 0 0 0 0 0 0 0 0 
0 0 0 0 0 0 0 0 0 
0 0 0 0 0 0 0 0 0 
0 0 0 0 0 0 0 0 0 
0 0 0 0 0 0 0 0 0 
0 0 0 0 0 0 0 0 0 
0 0 0 0 0 0 0 0 0 
0 0 0 0 0 0 0 0 0 
0 0 0 0 0 0 0 0 0 
0 0 0 0 0 0 0 0 0 
0 0 0 0 0 0 0 0 0 
0 0 0 0 0 0 0 0 0 
0 0 0 0 0 0 0 0 0 
0 0 0 0 0 0 0 0 0 
0 0 0 0 0 0 0 0 0 
0 0 0 0 0 0 0 0 0 
0 0 0 0 0 0 0 0 0 
0 0 0 0 0 0 0 0 0 
0 0 0 0 0 0 0 0 0 
0 0 0 0 0 0 0 0 0 
0 0 0 0 0 0 0 0 0 
0 0 0 0 0 0 0 0 0 
0 0 0 0 0 0 0 0 0 
0 0 0 0 0 0 0 0 0 
0 0 0 0 0 0 0 0 0 
0 0 0 0 0 0 0 0 0 
0 0 0 0 0 0 0 0 0 
0 0 0 0 0 0 0 0 0 
0 0 0 0 0 0 0 0 0 
0 0 0 0 0 0 0 0 0 
0 0 0 0 0 0 0 0 0 
0 0 0 0 0 0 0 0 0 
0 0 0 0 0 0 0 0 0 
0 0 0 0 0 0 0 0 0 
0 0 0 0 0 0 0 0 0 
0 0 0 0 0 0 0 0 0 
0 0 0 0 0 0 0 0 0 
0 0 0 0 0 0 0 0 0 
0 0 0 0 0 0 0 0 0 
0 0 0 0 0 0 0 0 0 
0 0 0 0 0 0 0 0 0 
0 0 0 0 0 0 0 0 0 
0 0 0 0 0 0 0 0 0 
0 0 0 0 0 0 0 0 0 
0 0 0 0 0 0 0 0 0 
0 0 0 0 0 0 0 0 0 
0 0 0 0 0 0 0 0 0 
0 0 0 0 0 0 0 0 0 
0 0 0 0 0 0 0 0 0 
0 0 0 0 0 0 0 0 0 
0 0 0 0 0 0 0 0 0 
0 0 0 0 0 0 0 0 0 
0 0 0 0 0 0 0 0 0 
0 0 0 0 0 0 0 0 0 
0 0 0 0 0 0 0 0 0 
0 0 0 0 0 0 0 0 0 
0 0 0 0 0 0 0 0 0 
0 0 0 0 0 0 0 0 0 
0 0 0 0 0 0 0 0 0 
0 0 0 0 0 0 0 0 0 
0 0 0 0 0 0 0 0 0 
0 0 0 0 0 0 0 
il1 1 2500 double
1.6676719833e-27 9.6414658722e-25 4.662010935e-22 1.8844168263e-19 7.1156167404e-17 2.4207529088e-14 6.8338364481e-12 1.286148632e-09 6.8338364481e-12 
2.4207530782e-14 7.1458981683e-17 1.8984732099e-19 4.7035502045e-22 9.7338957184e-25 1.689036902e-27 2.8050255576e-30 4.4171621016e-33 6.4568482675e-36 
8.3233821717e-39 8.0028155298e-42 0 0 0 0 0 0 0 
0 0 0 0 0 0 0 0 0 
0 0 0 0 0 0 0 0 0 
0 0 0 0 0 1.3801769882e-25 7.7914346416e-23 3.7738451393e-20 1.7771575105e-17 
8.0339940023e-15 3.4049536194e-12 1.2827477969e-09 3.6244011881e-07 1.2827477969e-09 3.4049536194e-12 8.0339948493e-15 1.7771578414e-17 3.7738464318e-20 
7.791437797e-23 1.3822753582e-25 2.0975630432e-28 3.0950853244e-31 4.385554987e-34 5.8289585771e-37 6.8961400676e-40 6.1517002584e-43 0 
0 0 0 0 0 0 0 0 0 
0 0 0 0 0 0 0 0 0 
0 0 0 0 0 0 0 0 0 
1.1326748867e-23 1.6751108877e-27 9.6751719265e-25 5.3541304826e-22 2.2066472311e-19 8.5541804404e-17 3.022953185e-14 9.1186129828e-12 1.9351256153e-09 
9.1186129828e-12 3.022953185e-14 8.5541804404e-17 2.2066474896e-19 5.3541309875e-22 9.6751719265e-25 1.6778963602e-27 2.7852936153e-30 4.385106738e-33 
6.4113337347e-36 8.2753638772e-39 8.0028155298e-42 0 0 0 0 0 0 
0 0 0 0 0 0 0 0 0 
0 0 0 0 0 0 0 0 0 
0 0 0 0 6.7960493203e-23 6.4651624845e-21 1.1121088366e-29 1.1332621148e-23 6.4001044062e-21 
3.6164199896e-18 2.0433257425e-15 1.1545668935e-12 6.5240812752e-10 3.6866708797e-07 6.5240812752e-10 1.1545668935e-12 2.0433257425e-15 3.6164199896e-18 
6.4001044062e-21 1.1332621148e-23 1.1140820873e-29 1.9732341881e-32 3.2055837132e-35 4.5514504828e-38 4.8018294477e-41 0 0 
0 0 0 0 0 0 0 0 0 
0 0 0 0 0 0 0 0 0 
0 0 0 0 0 0 0 0 1.699012267e-22 
3.2155912836e-20 3.6472374305e-18 5.2522651002e-32 2.5994896368e-29 6.7972237764e-23 3.1990848299e-20 1.4461952683e-17 6.1290622202e-15 2.3089626999e-12 
6.5239202929e-10 2.3089626999e-12 6.1290622202e-15 1.4461952683e-17 3.1990848299e-20 6.7972237764e-23 2.5994896368e-29 5.2618818195e-32 9.6166366321e-35 
1.5171500862e-37 1.7606614555e-40 0 0 0 0 0 0 0 
0 0 0 0 0 0 0 0 0 
0 0 0 0 0 0 0 0 0 
0 0 0 2.2653497734e-22 6.4198553628e-20 1.4524365114e-17 2.057408724e-15 1.9244517373e-34 9.2082320584e-32 
3.8992130894e-29 1.6991591844e-22 6.3976856299e-20 2.1691588991e-17 6.1288737553e-15 1.1544779889e-12 6.1288737553e-15 2.1691588991e-17 6.3976856299e-20 
1.6991591844e-22 3.8992130894e-29 9.2082320584e-32 1.9233159618e-34 3.4135877219e-37 4.4016466323e-40 0 0 0 
0 0 0 0 0 0 0 0 0 
0 0 0 0 0 0 0 0 0 
0 0 0 0 0 0 0 1.699012267e-22 6.4141924068e-20 
2.1754393506e-17 6.1503752632e-15 1.1605888776e-12 5.4676320865e-37 2.692635344e-34 1.1049856136e-31 3.8992130894e-29 2.2654671559e-22 6.3974924057e-20 
1.4460860804e-17 2.0429860823e-15 1.4460860804e-17 6.3974924057e-20 2.2654671559e-22 3.8992130894e-29 1.1049856136e-31 2.692635344e-34 5.4617403551e-37 
7.9229555303e-40 0 0 0 0 0 0 0 0 
0 0 0 0 0 0 0 0 0 
0 0 0 0 0 0 0 0 0 
0 0 6.7960493203e-23 3.2053969288e-20 1.4492379694e-17 6.1431454135e-15 2.3150203542e-12 6.54692911e-10 1.0563940707e-39 
6.3720305638e-37 2.692635344e-34 9.2082320584e-32 2.5994896368e-29 1.6990710844e-22 3.1986977352e-20 3.615329352e-18 3.1986977352e-20 1.6990710844e-22 
2.5994896368e-29 9.2082320584e-32 2.692635344e-34 6.3720305638e-37 1.0563940707e-39 0 0 0 0 
0 0 0 0 0 0 0 0 0 
0 0 0 0 0 0 0 0 0 
0 0 0 0 0 0 1.1326748867e-23 6.4085288853e-21 3.6216485983e-18 
2.0465635259e-15 1.1565031701e-12 6.5353844558e-10 3.6931606928e-07 0 1.0563940707e-39 5.4617403551e-37 1.9233159618e-34 5.2618818195e-32 
1.1140820873e-29 6.7962171899e-23 6.3973401366e-21 6.7962171899e-23 1.1140820873e-29 5.2618818195e-32 1.9233159618e-34 5.4617403551e-37 1.0563940707e-39 
0 0 0 0 0 0 0 0 0 
0 0 0 0 0 0 0 0 0 
0 0 0 0 0 0 0 0 0 
0 0 0 6.7960493203e-23 3.2053969288e-20 1.4492379694e-17 6.1431454135e-15 2.3150203542e-12 6.54692911e-10 
0 0 7.9229555303e-40 3.4135877219e-37 9.6166366321e-35 1.9732341881e-32 2.7852932392e-30 1.1326958704e-23 2.7852932392e-30 
1.9732341881e-32 9.6166366321e-35 3.4135877219e-37 7.9229555303e-40 0 0 0 0 0 
0 0 0 0 0 0 0 0 0 
0 0 0 0 0 0 0 0 0 
0 0 0 0 0 0 0 0 1.1326748867e-23 
1.699012267e-22 6.4141924068e-20 2.1754393506e-17 6.1503752632e-15 1.1605888776e-12 0 0 0 4.4016466323e-40 
1.5171500862e-37 3.2055837132e-35 4.3851063706e-33 3.0950836787e-31 4.3851063706e-33 3.2055837132e-35 1.5171500862e-37 4.4016466323e-40 0 
0 0 0 0 0 0 0 0 0 
0 0 0 0 0 0 0 0 0 
0 0 0 0 0 0 0 0 0 
0 0 0 6.7960493203e-23 6.3972020039e-21 6.7960493203e-23 2.2653497734e-22 6.4198553628e-20 1.4524365114e-17 
2.057408724e-15 0 0 0 0 1.7606614555e-40 4.5514504828e-38 6.4113337347e-36 4.3855531503e-34 
6.4113337347e-36 4.5514504828e-38 1.7606614555e-40 0 0 0 0 0 0 
0 0 0 0 0 0 0 0 0 
0 0 0 0 0 0 0 0 0 
0 0 0 0 0 0 0 1.699012267e-22 3.1986011231e-20 
3.6152511834e-18 3.1986011231e-20 1.699012267e-22 1.699012267e-22 3.2155912836e-20 3.6472374305e-18 0 0 0 
0 0 4.8018294477e-41 8.2753638772e-39 5.8289585771e-37 8.2753638772e-39 4.8018294477e-41 0 0 
0 0 0 0 0 0 0 0 0 
0 0 0 0 0 0 0 0 0 
0 0 0 0 0 0 0 0 0 
0 0 2.2653497734e-22 6.3972022462e-20 1.4460394274e-17 2.0429483893e-15 1.4460394274e-17 6.3972022462e-20 2.2653497734e-22 
6.7960493203e-23 6.4651624845e-21 0 0 0 0 0 0 8.0028155298e-42 
6.8961400676e-40 8.0028155298e-42 0 0 0 0 0 0 0 
0 0 0 0 0 0 0 0 0 
0 0 0 0 0 0 0 0 0 
0 0 0 0 0 0 1.699012267e-22 6.3972022462e-20 2.1690421012e-17 
6.128684867e-15 1.154460208e-12 6.128684867e-15 2.1690421012e-17 6.3972022462e-20 1.699012267e-22 1.1326748867e-23 0 0 
0 0 0 0 0 6.1517002584e-43 0 0 0 
0 0 0 0 0 0 0 0 0 
0 0 0 0 0 0 0 0 0 
0 0 0 0 0 0 0 0 0 
0 6.7960493203e-23 3.1986011231e-20 1.4460394274e-17 6.128684867e-15 2.3088915762e-12 6.5238403568e-10 2.3088915762e-12 6.128684867e-15 
1.4460394274e-17 3.1986011231e-20 6.7960493203e-23 0 0 0 0 0 0 
0 0 0 0 0 0 0 0 0 
0 0 0 0 0 0 0 0 0 
0 0 0 0 0 0 0 0 0 
0 0 0 0 0 1.1326748867e-23 6.3972020039e-21 3.6152511834e-18 2.0429483893e-15 
1.154460208e-12 6.5238403568e-10 3.6866367736e-07 6.5238403568e-10 1.154460208e-12 2.0429483893e-15 3.6152511834e-18 6.4085288853e-21 0 
0 0 0 0 0 0 0 0 0 
0 0 0 0 0 0 0 0 0 
0 0 0 0 0 0 0 0 0 
0 0 0 0 0 0 0 0 0 
0 7.9229555303e-40 7.928724207e-23 3.1986011231e-20 1.4460394274e-17 6.128684867e-15 2.3088915762e-12 6.5238403568e-10 2.3088915762e-12 
6.128684867e-15 1.4460394274e-17 3.1986011231e-20 6.7960493203e-23 0 0 0 0 0 
0 0 0 0 0 0 0 0 0 
0 0 0 0 0 0 0 0 0 
0 0 0 0 0 0 0 0 0 
0 0 0 0 0 1.0563940707e-39 6.7960493203e-23 6.3972020039e-21 2.3786173252e-22 
6.3972022462e-20 2.1690421012e-17 6.128684867e-15 1.154460208e-12 6.128684867e-15 2.1690421012e-17 6.3972022462e-20 1.699012267e-22 1.0563940707e-39 
0 0 0 0 0 0 0 0 0 
0 0 0 0 0 0 0 0 0 
0 0 0 0 0 0 0 0 0 
0 0 0 0 0 0 0 0 0 
1.0563940707e-39 1.699012267e-22 3.1986011231e-20 3.6152511834e-18 3.1986011231e-20 3.9644208578e-22 6.3972985352e-20 1.4460472029e-17 2.0429483893e-15 
1.4460394274e-17 6.3972022462e-20 2.2653497734e-22 2.692635344e-34 6.3825943363e-37 0 0 0 0 
0 0 0 0 0 0 0 0 0 
0 0 0 0 0 0 0 0 0 
0 0 0 0 0 0 0 0 0 
0 0 0 0 7.9229555303e-40 2.2653497734e-22 6.3972022462e-20 1.4460394274e-17 2.0429483893e-15 
1.4460394274e-17 6.3974924057e-20 8.6388877172e-22 6.9724462624e-20 3.615718954e-18 3.1988912826e-20 1.6991297757e-22 3.8992130894e-29 1.1049856136e-31 
2.6980972602e-34 0 0 0 0 0 0 0 0 
0 0 0 0 0 0 0 0 0 
0 0 0 0 0 0 0 0 0 
0 0 0 0 1.1326748867e-23 0 0 0 4.4016466323e-40 
1.699012267e-22 6.3972022462e-20 2.1690421012e-17 6.128684867e-15 1.154460208e-12 6.128684867e-15 2.1691588991e-17 2.5265073758e-19 1.777164128e-17 
1.9507591671e-19 1.2365683728e-21 4.8374354881e-24 1.4680969536e-26 3.8992130894e-29 9.2274649093e-32 0 0 0 
0 0 0 0 0 0 0 0 0 
0 0 0 0 0 0 0 0 0 
0 0 0 0 0 0 0 0 6.7960493203e-23 
6.3972020039e-21 6.7960493203e-23 0 1.7606614555e-40 6.7960493203e-23 3.1986011231e-20 1.4460394274e-17 6.128684867e-15 2.3088915762e-12 