# vtk DataFile Version 5.1
vtk output
ASCII
DATASET STRUCTURED_POINTS
DIMENSIONS 50 50 1
SPACING 1 1 1
ORIGIN 0 0 0
POINT_DATA 2500
FIELD FieldData 10
CellType 1 2500 char
0 0 0 0 0 0 0 0 0 
0 0 0 0 0 0 0 0 0 
0 0 0 0 0 0 10 0 0 
0 0 0 0 0 0 0 0 0 
9 0 0 0 0 0 0 0 0 
0 0 0 0 0 0 0 0 0 
0 0 0 0 0 0 0 9 0 
0 0 0 0 0 0 0 0 0 
0 0 0 0 0 0 9 0 0 
0 0 0 0 0 0 0 0 0 
0 0 0 0 0 0 0 0 0 
0 0 0 7 0 0 0 0 0 
0 0 0 0 0 0 0 0 0 
10 0 0 0 0 0 0 0 0 
0 0 0 0 0 0 0 0 0 
0 0 0 0 0 0 0 0 9 
0 0 0 0 0 0 0 0 0 
0 0 0 0 0 0 0 0 0 
0 0 0 0 0 0 0 0 9 
0 0 0 0 0 0 0 0 0 
0 0 0 3 0 0 0 0 0 
0 0 0 0 0 0 0 0 0 
0 0 0 0 0 0 0 0 0 
0 0 0 0 0 0 0 0 0 
0 0 0 0 0 0 0 0 0 
9 0 0 0 0 0 0 0 0 
0 0 0 0 0 0 0 0 0 
10 0 0 0 0 0 0 0 0 
0 0 0 0 0 0 0 0 0 
0 0 0 0 0 0 0 0 0 
0 0 0 0 0 0 0 0 0 
0 0 7 0 0 0 0 0 0 
0 0 0 0 0 0 0 0 0 
5 0 0 0 0 0 0 0 0 
0 0 0 0 0 10 0 0 0 
0 0 0 0 0 0 0 0 0 
0 0 0 0 0 0 0 0 0 
0 0 0 0 0 0 0 7 0 
0 0 0 0 0 0 0 0 0 
0 0 9 0 0 0 0 0 0 
0 0 0 0 0 0 0 0 0 
0 0 0 1 0 0 0 0 0 
0 0 0 0 0 0 0 0 0 
0 0 0 0 0 0 0 0 0 
0 0 0 0 0 0 0 0 0 
0 0 0 1 0 0 0 0 0 
0 0 0 0 0 0 0 0 1 
0 0 0 0 0 0 1 0 0 
0 8 0 1 0 0 0 0 0 
0 0 0 0 0 0 0 0 0 
0 0 0 0 0 0 0 0 0 
0 0 0 1 0 0 0 0 0 
0 0 0 0 0 0 0 0 9 
0 0 0 0 0 0 0 0 0 
9 0 0 1 0 0 0 0 0 
0 0 0 0 0 0 0 0 0 
0 0 0 0 0 0 0 1 0 
0 0 0 0 0 0 0 0 0 
0 0 0 0 0 0 0 0 1 
1 0 0 0 0 0 0 0 0 
0 0 0 7 0 0 0 0 0 
0 0 0 0 0 0 0 0 0 
0 0 0 0 0 0 0 1 0 
0 1 10 0 0 0 0 0 0 
0 0 0 0 0 0 0 0 0 
0 0 0 0 0 0 0 0 0 
0 0 0 0 0 0 0 0 0 
0 0 0 0 0 0 0 0 0 
0 0 0 0 0 0 0 0 0 
0 0 0 0 0 0 0 0 1 
0 0 0 0 0 0 0 0 0 
1 0 1 0 0 0 0 0 0 
0 0 0 0 0 0 0 0 0 
10 0 0 0 1 0 0 0 0 
1 0 0 0 0 0 0 0 0 
0 9 0 0 0 0 0 0 1 
0 0 0 0 0 0 0 0 0 
0 0 0 0 0 0 0 0 0 
0 0 0 0 0 0 0 0 0 
0 0 0 0 1 10 1 0 0 
0 0 1 0 0 0 4 0 0 
0 0 0 0 0 0 0 0 0 
10 0 0 0 0 0 0 0 0 
0 0 0 0 0 0 9 0 0 
0 0 0 0 0 1 0 0 0 
0 0 0 0 1 0 0 0 0 
0 0 0 0 0 0 0 0 0 
0 0 0 0 0 0 0 0 0 
0 0 0 0 0 0 0 0 0 
0 0 9 9 0 0 0 0 0 
1 0 0 0 0 0 0 0 0 
0 0 0 0 0 0 0 0 0 
0 0 0 0 0 0 0 1 1 
0 0 0 0 0 0 0 0 0 
0 0 0 0 0 0 0 0 0 
0 0 0 0 0 0 0 0 0 
0 0 0 0 0 1 0 0 0 
0 0 0 0 0 0 0 0 0 
0 0 0 0 0 0 0 0 0 
0 0 0 0 0 0 0 0 0 
0 0 0 0 0 0 0 0 1 
0 0 0 0 0 0 0 0 0 
0 0 0 0 10 1 0 0 0 
0 0 0 0 0 0 0 1 0 
0 0 0 0 0 0 0 0 0 
0 0 0 0 0 0 0 0 0 
0 0 0 0 0 0 0 0 0 
0 0 0 0 0 0 1 0 0 
0 0 0 1 0 0 0 0 0 
1 0 0 0 0 0 9 0 0 
0 0 0 0 0 0 0 0 0 
0 0 0 0 0 0 0 10 0 
0 0 0 0 0 0 0 0 0 
0 0 1 1 0 0 0 0 0 
0 1 0 0 0 0 0 0 0 
0 0 0 0 0 0 0 0 0 
0 0 0 9 0 0 0 0 0 
0 0 0 0 0 0 0 0 0 
10 0 0 0 1 0 0 0 0 
0 0 0 0 0 0 0 0 0 
0 0 0 0 0 0 0 0 0 
0 0 0 0 0 0 0 0 0 
0 0 0 0 0 0 0 0 0 
0 0 0 0 0 0 0 0 10 
0 0 0 0 0 0 0 0 0 
0 1 0 0 0 0 0 0 0 
0 0 1 0 0 0 0 0 0 
0 0 0 0 0 0 0 0 0 
0 0 0 0 0 0 0 0 0 
0 0 0 0 0 0 0 0 0 
0 0 0 0 0 0 4 1 0 
0 0 0 0 0 0 0 1 0 
0 0 1 0 0 0 0 0 0 
0 0 0 0 0 0 0 0 0 
0 0 0 0 0 0 0 1 0 
0 0 0 1 0 0 0 0 0 
0 1 1 0 0 0 0 0 0 
0 0 0 0 0 0 0 0 0 
0 0 0 0 0 0 0 0 0 
0 0 0 0 0 0 0 0 0 
9 0 0 0 0 0 0 0 0 
0 0 0 0 0 0 0 0 0 
0 0 0 0 0 0 0 1 0 
0 0 0 0 0 0 0 0 0 
0 0 0 0 0 0 0 0 10 
0 0 0 0 0 0 0 0 0 
0 9 0 0 1 0 0 0 0 
1 0 0 0 0 0 0 0 0 
0 0 0 0 0 0 1 1 0 
0 0 0 0 0 0 0 0 0 
0 0 0 0 0 0 0 1 0 
0 0 0 0 1 0 9 0 0 
0 0 0 0 0 0 1 0 0 
1 0 0 0 10 0 0 0 0 
1 0 0 0 0 0 0 0 0 
0 0 10 0 0 0 0 0 0 
0 0 0 0 0 0 0 0 0 
0 0 0 0 0 0 0 0 0 
0 0 10 0 0 0 0 0 0 
0 0 0 0 0 0 0 0 1 
0 0 0 0 0 0 0 0 0 
0 0 0 0 0 0 0 0 0 
0 0 0 0 0 0 0 0 0 
0 0 0 0 0 0 0 0 0 
0 0 1 0 0 0 0 1 0 
0 0 0 1 0 0 0 1 0 
0 0 0 0 0 0 0 0 0 
0 0 0 0 0 0 0 0 0 
0 0 0 0 0 0 0 0 0 
0 0 0 0 0 0 0 0 0 
0 0 0 0 0 0 0 0 0 
0 0 0 0 0 0 0 0 0 
0 0 0 0 0 0 0 0 0 
0 0 0 0 0 0 0 0 1 
0 0 0 0 0 1 0 0 0 
0 0 10 0 0 0 0 0 0 
0 0 0 0 0 0 0 0 0 
0 0 0 0 0 0 0 0 0 
0 0 0 0 0 0 0 0 0 
1 0 0 0 0 0 1 1 0 
0 0 0 1 0 0 0 0 0 
0 0 0 0 0 0 0 0 0 
0 0 0 0 0 0 0 0 0 
0 0 0 10 0 0 0 0 0 
0 0 0 0 0 1 0 0 0 
0 0 0 0 0 0 1 0 0 
0 0 0 0 0 0 1 0 0 
0 0 0 0 0 0 0 0 1 
0 0 0 0 0 0 0 0 0 
0 0 0 0 0 0 0 0 0 
0 0 1 9 0 0 0 0 0 
0 1 0 0 1 0 0 0 0 
0 0 0 0 0 0 0 0 0 
0 0 0 0 0 0 0 0 0 
0 10 0 0 0 0 0 0 0 
0 0 0 0 0 0 0 0 0 
0 0 0 0 1 0 0 0 0 
0 0 0 0 0 1 0 0 0 
0 10 0 0 0 0 0 0 1 
1 0 0 0 0 0 0 0 0 
0 0 0 0 0 0 0 0 0 
0 0 0 0 0 0 0 0 0 
0 1 0 0 0 0 0 0 0 
0 0 0 0 0 0 0 0 0 
0 9 0 0 0 0 0 0 0 
10 0 0 0 0 0 0 9 0 
0 0 0 10 0 0 0 1 0 
0 0 0 0 0 1 10 1 0 
0 1 0 0 0 0 0 0 0 
0 0 1 0 0 0 0 0 0 
0 1 0 0 0 0 0 0 0 
0 0 0 0 0 0 0 0 0 
0 0 0 0 0 0 0 0 0 
0 0 0 0 0 0 0 0 0 
0 0 0 0 0 0 1 0 0 
0 0 9 0 0 0 0 0 0 
0 0 0 0 0 0 0 0 0 
0 0 0 0 0 0 0 0 0 
1 0 0 0 0 0 0 0 0 
0 0 0 0 0 0 0 0 0 
0 0 0 0 0 0 0 0 0 
0 1 0 0 0 0 0 0 0 
0 0 0 0 0 0 0 0 0 
0 0 0 1 0 0 0 0 0 
0 0 0 0 0 0 0 0 0 
0 0 1 0 0 0 0 0 1 
0 0 0 0 0 0 0 0 0 
0 0 0 0 0 0 0 0 0 
0 0 0 0 0 0 0 0 0 
0 0 0 0 0 0 0 0 0 
0 0 0 0 0 0 0 0 0 
0 0 0 0 0 0 0 0 0 
0 0 0 0 1 0 0 9 0 
0 0 0 0 0 0 0 0 0 
0 0 0 0 0 0 0 0 0 
0 0 0 0 0 0 0 0 0 
0 0 0 0 3 0 0 0 0 
0 0 0 0 0 0 0 1 0 
0 0 0 0 0 0 0 0 0 
0 0 0 0 10 0 0 0 0 
0 0 0 0 0 0 0 0 0 
0 0 0 0 0 0 0 0 0 
0 0 0 0 0 0 0 0 0 
0 0 0 0 0 0 0 0 0 
0 0 0 0 0 0 0 0 0 
0 0 0 0 0 0 0 0 0 
0 0 0 0 0 0 0 0 0 
0 0 0 0 0 0 0 0 0 
0 0 0 0 0 0 0 0 0 
0 0 10 0 0 0 0 0 7 
0 0 0 0 0 0 0 0 0 
0 9 0 0 0 0 0 0 0 
0 0 0 0 0 0 0 0 0 
0 0 0 0 0 0 0 0 0 
0 0 0 0 0 0 0 0 0 
0 0 0 0 0 0 0 0 0 
0 0 0 0 0 0 0 0 0 
8 0 0 0 0 0 0 0 0 
0 0 0 0 0 0 0 0 0 
0 0 0 0 10 0 0 0 0 
0 0 0 0 0 0 0 0 0 
0 0 9 0 0 0 0 0 0 
0 0 0 0 0 0 0 0 0 
0 0 0 0 0 0 0 0 0 
9 0 0 0 0 0 10 0 0 
0 0 0 0 0 0 0 0 0 
0 0 0 0 0 10 0 0 0 
0 0 0 0 0 0 0 0 0 
0 0 0 0 0 0 0 0 0 
0 0 0 0 0 0 0 0 0 
0 0 0 0 0 0 0 0 0 
0 0 0 0 0 0 0 0 0 
0 0 0 0 0 0 0 0 0 
0 0 0 0 0 0 0 10 0 
0 0 0 0 0 0 0 0 0 
0 0 0 0 0 0 0 0 0 
0 0 0 0 0 0 0 0 0 
0 0 0 10 0 0 0 
CellId 1 2500 long
0 0 0 0 0 0 0 0 0 
0 0 0 0 0 0 0 0 0 
0 0 0 0 0 0 390 0 0 
0 0 0 0 0 0 0 0 0 
410 0 0 0 0 0 0 0 0 
0 0 0 0 0 0 0 0 0 
0 0 0 0 0 0 0 425 0 
0 0 0 0 0 0 0 0 0 
0 0 0 0 0 0 436 0 0 
0 0 0 0 0 0 0 0 0 
0 0 0 0 0 0 0 0 0 
0 0 0 451 0 0 0 0 0 
0 0 0 0 0 0 0 0 0 
219 0 0 0 0 0 0 0 0 
0 0 0 0 0 0 0 0 0 
0 0 0 0 0 0 0 0 427 
0 0 0 0 0 0 0 0 0 
0 0 0 0 0 0 0 0 0 
0 0 0 0 0 0 0 0 439 
0 0 0 0 0 0 0 0 0 
0 0 0 446 0 0 0 0 0 
0 0 0 0 0 0 0 0 0 
0 0 0 0 0 0 0 0 0 
0 0 0 0 0 0 0 0 0 
0 0 0 0 0 0 0 0 0 
422 0 0 0 0 0 0 0 0 
0 0 0 0 0 0 0 0 0 
213 0 0 0 0 0 0 0 0 
0 0 0 0 0 0 0 0 0 
0 0 0 0 0 0 0 0 0 
0 0 0 0 0 0 0 0 0 
0 0 450 0 0 0 0 0 0 
0 0 0 0 0 0 0 0 0 
441 0 0 0 0 0 0 0 0 
0 0 0 0 0 391 0 0 0 
0 0 0 0 0 0 0 0 0 
0 0 0 0 0 0 0 0 0 
0 0 0 0 0 0 0 448 0 
0 0 0 0 0 0 0 0 0 
0 0 406 0 0 0 0 0 0 
0 0 0 0 0 0 0 0 0 
0 0 0 77 0 0 0 0 0 
0 0 0 0 0 0 0 0 0 
0 0 0 0 0 0 0 0 0 
0 0 0 0 0 0 0 0 0 
0 0 0 63 0 0 0 0 0 
0 0 0 0 0 0 0 0 78 
0 0 0 0 0 0 43 0 0 
0 435 0 11 0 0 0 0 0 
0 0 0 0 0 0 0 0 0 
0 0 0 0 0 0 0 0 0 
0 0 0 62 0 0 0 0 0 
0 0 0 0 0 0 0 0 411 
0 0 0 0 0 0 0 0 0 
432 0 0 71 0 0 0 0 0 
0 0 0 0 0 0 0 0 0 
0 0 0 0 0 0 0 38 0 
0 0 0 0 0 0 0 0 0 
0 0 0 0 0 0 0 0 67 
100 0 0 0 0 0 0 0 0 
0 0 0 449 0 0 0 0 0 
0 0 0 0 0 0 0 0 0 
0 0 0 0 0 0 0 96 0 
0 25 221 0 0 0 0 0 0 
0 0 0 0 0 0 0 0 0 
0 0 0 0 0 0 0 0 0 
0 0 0 0 0 0 0 0 0 
0 0 0 0 0 0 0 0 0 
0 0 0 0 0 0 0 0 0 
0 0 0 0 0 0 0 0 68 
0 0 0 0 0 0 0 0 0 
31 0 7 0 0 0 0 0 0 
0 0 0 0 0 0 0 0 0 
416 0 0 0 69 0 0 0 0 
22 0 0 0 0 0 0 0 0 
0 453 0 0 0 0 0 0 33 
0 0 0 0 0 0 0 0 0 
0 0 0 0 0 0 0 0 0 
0 0 0 0 0 0 0 0 0 
0 0 0 0 8 339 61 0 0 
0 0 60 0 0 0 442 0 0 
0 0 0 0 0 0 0 0 0 
404 0 0 0 0 0 0 0 0 
0 0 0 0 0 0 409 0 0 
0 0 0 0 0 23 0 0 0 
0 0 0 0 85 0 0 0 0 
0 0 0 0 0 0 0 0 0 
0 0 0 0 0 0 0 0 0 
0 0 0 0 0 0 0 0 0 
0 0 409 409 0 0 0 0 0 
5 0 0 0 0 0 0 0 0 
0 0 0 0 0 0 0 0 0 
0 0 0 0 0 0 0 86 53 
0 0 0 0 0 0 0 0 0 
0 0 0 0 0 0 0 0 0 
0 0 0 0 0 0 0 0 0 
0 0 0 0 0 72 0 0 0 
0 0 0 0 0 0 0 0 0 
0 0 0 0 0 0 0 0 0 
0 0 0 0 0 0 0 0 0 
0 0 0 0 0 0 0 0 59 
0 0 0 0 0 0 0 0 0 
0 0 0 0 220 97 0 0 0 
0 0 0 0 0 0 0 51 0 
0 0 0 0 0 0 0 0 0 
0 0 0 0 0 0 0 0 0 
0 0 0 0 0 0 0 0 0 
0 0 0 0 0 0 54 0 0 
0 0 0 70 0 0 0 0 0 
3 0 0 0 0 0 434 0 0 
0 0 0 0 0 0 0 0 0 
0 0 0 0 0 0 0 326 0 
0 0 0 0 0 0 0 0 0 
0 0 42 57 0 0 0 0 0 
0 76 0 0 0 0 0 0 0 
0 0 0 0 0 0 0 0 0 
0 0 0 408 0 0 0 0 0 
0 0 0 0 0 0 0 0 0 
352 0 0 0 66 0 0 0 0 
0 0 0 0 0 0 0 0 0 
0 0 0 0 0 0 0 0 0 
0 0 0 0 0 0 0 0 0 
0 0 0 0 0 0 0 0 0 
0 0 0 0 0 0 0 0 403 
0 0 0 0 0 0 0 0 0 
0 84 0 0 0 0 0 0 0 
0 0 40 0 0 0 0 0 0 
0 0 0 0 0 0 0 0 0 
0 0 0 0 0 0 0 0 0 
0 0 0 0 0 0 0 0 0 
0 0 0 0 0 0 215 34 0 
0 0 0 0 0 0 0 88 0 
0 0 82 0 0 0 0 0 0 
0 0 0 0 0 0 0 0 0 
0 0 0 0 0 0 0 44 0 
0 0 0 29 0 0 0 0 0 
0 2 91 0 0 0 0 0 0 
0 0 0 0 0 0 0 0 0 
0 0 0 0 0 0 0 0 0 
0 0 0 0 0 0 0 0 0 
423 0 0 0 0 0 0 0 0 
0 0 0 0 0 0 0 0 0 
0 0 0 0 0 0 0 27 0 
0 0 0 0 0 0 0 0 0 
0 0 0 0 0 0 0 0 443 
0 0 0 0 0 0 0 0 0 
0 413 0 0 98 0 0 0 0 
10 0 0 0 0 0 0 0 0 
0 0 0 0 0 0 4 58 0 
0 0 0 0 0 0 0 0 0 
0 0 0 0 0 0 0 73 0 
0 0 0 0 75 0 413 0 0 
0 0 0 0 0 0 13 0 0 
55 0 0 0 364 0 0 0 0 
32 0 0 0 0 0 0 0 0 
0 0 223 0 0 0 0 0 0 
0 0 0 0 0 0 0 0 0 
0 0 0 0 0 0 0 0 0 
0 0 351 0 0 0 0 0 0 
0 0 0 0 0 0 0 0 49 
0 0 0 0 0 0 0 0 0 
0 0 0 0 0 0 0 0 0 
0 0 0 0 0 0 0 0 0 
0 0 0 0 0 0 0 0 0 
0 0 47 0 0 0 0 89 0 
0 0 0 37 0 0 0 30 0 
0 0 0 0 0 0 0 0 0 
0 0 0 0 0 0 0 0 0 
0 0 0 0 0 0 0 0 0 
0 0 0 0 0 0 0 0 0 
0 0 0 0 0 0 0 0 0 
0 0 0 0 0 0 0 0 0 
0 0 0 0 0 0 0 0 0 
0 0 0 0 0 0 0 0 95 
0 0 0 0 0 90 0 0 0 
0 0 377 0 0 0 0 0 0 
0 0 0 0 0 0 0 0 0 
0 0 0 0 0 0 0 0 0 
0 0 0 0 0 0 0 0 0 
83 0 0 0 0 0 52 87 0 
0 0 0 14 0 0 0 0 0 
0 0 0 0 0 0 0 0 0 
0 0 0 0 0 0 0 0 0 
0 0 0 325 0 0 0 0 0 
0 0 0 0 0 9 0 0 0 
0 0 0 0 0 0 21 0 0 
0 0 0 0 0 0 99 0 0 
0 0 0 0 0 0 0 0 64 
0 0 0 0 0 0 0 0 0 
0 0 0 0 0 0 0 0 0 
0 0 26 437 0 0 0 0 0 
0 80 0 0 45 0 0 0 0 
0 0 0 0 0 0 0 0 0 
0 0 0 0 0 0 0 0 0 
0 216 0 0 0 0 0 0 0 
0 0 0 0 0 0 0 0 0 
0 0 0 0 1 0 0 0 0 
0 0 0 0 0 94 0 0 0 
0 430 0 0 0 0 0 0 93 
35 0 0 0 0 0 0 0 0 
0 0 0 0 0 0 0 0 0 
0 0 0 0 0 0 0 0 0 
0 15 0 0 0 0 0 0 0 
0 0 0 0 0 0 0 0 0 
0 405 0 0 0 0 0 0 0 
218 0 0 0 0 0 0 445 0 
0 0 0 212 0 0 0 39 0 
0 0 0 0 0 19 217 46 0 
0 36 0 0 0 0 0 0 0 
0 0 50 0 0 0 0 0 0 
0 17 0 0 0 0 0 0 0 
0 0 0 0 0 0 0 0 0 
0 0 0 0 0 0 0 0 0 
0 0 0 0 0 0 0 0 0 
0 0 0 0 0 0 18 0 0 
0 0 431 0 0 0 0 0 0 
0 0 0 0 0 0 0 0 0 
0 0 0 0 0 0 0 0 0 
20 0 0 0 0 0 0 0 0 
0 0 0 0 0 0 0 0 0 
0 0 0 0 0 0 0 0 0 
0 24 0 0 0 0 0 0 0 
0 0 0 0 0 0 0 0 0 
0 0 0 74 0 0 0 0 0 
0 0 0 0 0 0 0 0 0 
0 0 6 0 0 0 0 0 56 
0 0 0 0 0 0 0 0 0 
0 0 0 0 0 0 0 0 0 
0 0 0 0 0 0 0 0 0 
0 0 0 0 0 0 0 0 0 
0 0 0 0 0 0 0 0 0 
0 0 0 0 0 0 0 0 0 
0 0 0 0 16 0 0 426 0 
0 0 0 0 0 0 0 0 0 
0 0 0 0 0 0 0 0 0 
0 0 0 0 0 0 0 0 0 
0 0 0 0 452 0 0 0 0 
0 0 0 0 0 0 0 81 0 
0 0 0 0 0 0 0 0 0 
0 0 0 0 214 0 0 0 0 
0 0 0 0 0 0 0 0 0 
0 0 0 0 0 0 0 0 0 
0 0 0 0 0 0 0 0 0 
0 0 0 0 0 0 0 0 0 
0 0 0 0 0 0 0 0 0 
0 0 0 0 0 0 0 0 0 
0 0 0 0 0 0 0 0 0 
0 0 0 0 0 0 0 0 0 
0 0 0 0 0 0 0 0 0 
0 0 338 0 0 0 0 0 444 
0 0 0 0 0 0 0 0 0 
0 419 0 0 0 0 0 0 0 
0 0 0 0 0 0 0 0 0 
0 0 0 0 0 0 0 0 0 
0 0 0 0 0 0 0 0 0 
0 0 0 0 0 0 0 0 0 
0 0 0 0 0 0 0 0 0 
447 0 0 0 0 0 0 0 0 
0 0 0 0 0 0 0 0 0 
0 0 0 0 417 0 0 0 0 
0 0 0 0 0 0 0 0 0 
0 0 438 0 0 0 0 0 0 
0 0 0 0 0 0 0 0 0 
0 0 0 0 0 0 0 0 0 
433 0 0 0 0 0 365 0 0 
0 0 0 0 0 0 0 0 0 
0 0 0 0 0 429 0 0 0 
0 0 0 0 0 0 0 0 0 
0 0 0 0 0 0 0 0 0 
0 0 0 0 0 0 0 0 0 
0 0 0 0 0 0 0 0 0 
0 0 0 0 0 0 0 0 0 
0 0 0 0 0 0 0 0 0 
0 0 0 0 0 0 0 222 0 
0 0 0 0 0 0 0 0 0 
0 0 0 0 0 0 0 0 0 
0 0 0 0 0 0 0 0 0 
0 0 0 211 0 0 0 
ClusterId 1 2500 long
0 0 0 0 0 0 0 0 0 
0 0 0 0 0 0 0 0 0 
0 0 0 0 0 0 390 0 0 
0 0 0 0 0 0 0 0 0 
410 0 0 0 0 0 0 0 0 
0 0 0 0 0 0 0 0 0 
0 0 0 0 0 0 0 425 0 
0 0 0 0 0 0 0 0 0 
0 0 0 0 0 0 436 0 0 
0 0 0 0 0 0 0 0 0 
0 0 0 0 0 0 0 0 0 
0 0 0 451 0 0 0 0 0 
0 0 0 0 0 0 0 0 0 
219 0 0 0 0 0 0 0 0 
0 0 0 0 0 0 0 0 0 
0 0 0 0 0 0 0 0 427 
0 0 0 0 0 0 0 0 0 
0 0 0 0 0 0 0 0 0 
0 0 0 0 0 0 0 0 439 
0 0 0 0 0 0 0 0 0 
0 0 0 446 0 0 0 0 0 
0 0 0 0 0 0 0 0 0 
0 0 0 0 0 0 0 0 0 
0 0 0 0 0 0 0 0 0 
0 0 0 0 0 0 0 0 0 
422 0 0 0 0 0 0 0 0 
0 0 0 0 0 0 0 0 0 
213 0 0 0 0 0 0 0 0 
0 0 0 0 0 0 0 0 0 
0 0 0 0 0 0 0 0 0 
0 0 0 0 0 0 0 0 0 
0 0 450 0 0 0 0 0 0 
0 0 0 0 0 0 0 0 0 
441 0 0 0 0 0 0 0 0 
0 0 0 0 0 391 0 0 0 
0 0 0 0 0 0 0 0 0 
0 0 0 0 0 0 0 0 0 
0 0 0 0 0 0 0 448 0 
0 0 0 0 0 0 0 0 0 
0 0 406 0 0 0 0 0 0 
0 0 0 0 0 0 0 0 0 
0 0 0 77 0 0 0 0 0 
0 0 0 0 0 0 0 0 0 
0 0 0 0 0 0 0 0 0 
0 0 0 0 0 0 0 0 0 
0 0 0 63 0 0 0 0 0 
0 0 0 0 0 0 0 0 78 
0 0 0 0 0 0 43 0 0 
0 435 0 11 0 0 0 0 0 
0 0 0 0 0 0 0 0 0 
0 0 0 0 0 0 0 0 0 
0 0 0 62 0 0 0 0 0 
0 0 0 0 0 0 0 0 411 
0 0 0 0 0 0 0 0 0 
432 0 0 71 0 0 0 0 0 
0 0 0 0 0 0 0 0 0 
0 0 0 0 0 0 0 38 0 
0 0 0 0 0 0 0 0 0 
0 0 0 0 0 0 0 0 67 
100 0 0 0 0 0 0 0 0 
0 0 0 449 0 0 0 0 0 
0 0 0 0 0 0 0 0 0 
0 0 0 0 0 0 0 96 0 
0 25 221 0 0 0 0 0 0 
0 0 0 0 0 0 0 0 0 
0 0 0 0 0 0 0 0 0 
0 0 0 0 0 0 0 0 0 
0 0 0 0 0 0 0 0 0 
0 0 0 0 0 0 0 0 0 
0 0 0 0 0 0 0 0 68 
0 0 0 0 0 0 0 0 0 
31 0 7 0 0 0 0 0 0 
0 0 0 0 0 0 0 0 0 
416 0 0 0 69 0 0 0 0 
22 0 0 0 0 0 0 0 0 
0 453 0 0 0 0 0 0 33 
0 0 0 0 0 0 0 0 0 
0 0 0 0 0 0 0 0 0 
0 0 0 0 0 0 0 0 0 
0 0 0 0 8 339 61 0 0 
0 0 60 0 0 0 442 0 0 
0 0 0 0 0 0 0 0 0 
404 0 0 0 0 0 0 0 0 
0 0 0 0 0 0 409 0 0 
0 0 0 0 0 23 0 0 0 
0 0 0 0 85 0 0 0 0 
0 0 0 0 0 0 0 0 0 
0 0 0 0 0 0 0 0 0 
0 0 0 0 0 0 0 0 0 
0 0 409 409 0 0 0 0 0 
5 0 0 0 0 0 0 0 0 
0 0 0 0 0 0 0 0 0 
0 0 0 0 0 0 0 86 53 
0 0 0 0 0 0 0 0 0 
0 0 0 0 0 0 0 0 0 
0 0 0 0 0 0 0 0 0 
0 0 0 0 0 72 0 0 0 
0 0 0 0 0 0 0 0 0 
0 0 0 0 0 0 0 0 0 
0 0 0 0 0 0 0 0 0 
0 0 0 0 0 0 0 0 59 
0 0 0 0 0 0 0 0 0 
0 0 0 0 220 97 0 0 0 
0 0 0 0 0 0 0 51 0 
0 0 0 0 0 0 0 0 0 
0 0 0 0 0 0 0 0 0 
0 0 0 0 0 0 0 0 0 
0 0 0 0 0 0 54 0 0 
0 0 0 70 0 0 0 0 0 
3 0 0 0 0 0 434 0 0 
0 0 0 0 0 0 0 0 0 
0 0 0 0 0 0 0 326 0 
0 0 0 0 0 0 0 0 0 
0 0 42 57 0 0 0 0 0 
0 76 0 0 0 0 0 0 0 
0 0 0 0 0 0 0 0 0 
0 0 0 408 0 0 0 0 0 
0 0 0 0 0 0 0 0 0 
352 0 0 0 66 0 0 0 0 
0 0 0 0 0 0 0 0 0 
0 0 0 0 0 0 0 0 0 
0 0 0 0 0 0 0 0 0 
0 0 0 0 0 0 0 0 0 
0 0 0 0 0 0 0 0 403 
0 0 0 0 0 0 0 0 0 
0 84 0 0 0 0 0 0 0 
0 0 40 0 0 0 0 0 0 
0 0 0 0 0 0 0 0 0 
0 0 0 0 0 0 0 0 0 
0 0 0 0 0 0 0 0 0 
0 0 0 0 0 0 215 34 0 
0 0 0 0 0 0 0 88 0 
0 0 82 0 0 0 0 0 0 
0 0 0 0 0 0 0 0 0 
0 0 0 0 0 0 0 44 0 
0 0 0 29 0 0 0 0 0 
0 2 91 0 0 0 0 0 0 
0 0 0 0 0 0 0 0 0 
0 0 0 0 0 0 0 0 0 
0 0 0 0 0 0 0 0 0 
423 0 0 0 0 0 0 0 0 
0 0 0 0 0 0 0 0 0 
0 0 0 0 0 0 0 27 0 
0 0 0 0 0 0 0 0 0 
0 0 0 0 0 0 0 0 443 
0 0 0 0 0 0 0 0 0 
0 413 0 0 98 0 0 0 0 
10 0 0 0 0 0 0 0 0 
0 0 0 0 0 0 4 58 0 
0 0 0 0 0 0 0 0 0 
0 0 0 0 0 0 0 73 0 
0 0 0 0 75 0 413 0 0 
0 0 0 0 0 0 13 0 0 
55 0 0 0 364 0 0 0 0 
32 0 0 0 0 0 0 0 0 
0 0 223 0 0 0 0 0 0 
0 0 0 0 0 0 0 0 0 
0 0 0 0 0 0 0 0 0 
0 0 351 0 0 0 0 0 0 
0 0 0 0 0 0 0 0 49 
0 0 0 0 0 0 0 0 0 
0 0 0 0 0 0 0 0 0 
0 0 0 0 0 0 0 0 0 
0 0 0 0 0 0 0 0 0 
0 0 47 0 0 0 0 89 0 
0 0 0 37 0 0 0 30 0 
0 0 0 0 0 0 0 0 0 
0 0 0 0 0 0 0 0 0 
0 0 0 0 0 0 0 0 0 
0 0 0 0 0 0 0 0 0 
0 0 0 0 0 0 0 0 0 
0 0 0 0 0 0 0 0 0 
0 0 0 0 0 0 0 0 0 
0 0 0 0 0 0 0 0 95 
0 0 0 0 0 90 0 0 0 
0 0 377 0 0 0 0 0 0 
0 0 0 0 0 0 0 0 0 
0 0 0 0 0 0 0 0 0 
0 0 0 0 0 0 0 0 0 
83 0 0 0 0 0 52 87 0 
0 0 0 14 0 0 0 0 0 
0 0 0 0 0 0 0 0 0 
0 0 0 0 0 0 0 0 0 
0 0 0 325 0 0 0 0 0 
0 0 0 0 0 9 0 0 0 
0 0 0 0 0 0 21 0 0 
0 0 0 0 0 0 99 0 0 
0 0 0 0 0 0 0 0 64 
0 0 0 0 0 0 0 0 0 
0 0 0 0 0 0 0 0 0 
0 0 26 437 0 0 0 0 0 
0 80 0 0 45 0 0 0 0 
0 0 0 0 0 0 0 0 0 
0 0 0 0 0 0 0 0 0 
0 216 0 0 0 0 0 0 0 
0 0 0 0 0 0 0 0 0 
0 0 0 0 1 0 0 0 0 
0 0 0 0 0 94 0 0 0 
0 430 0 0 0 0 0 0 93 
35 0 0 0 0 0 0 0 0 
0 0 0 0 0 0 0 0 0 
0 0 0 0 0 0 0 0 0 
0 15 0 0 0 0 0 0 0 
0 0 0 0 0 0 0 0 0 
0 405 0 0 0 0 0 0 0 
218 0 0 0 0 0 0 445 0 
0 0 0 212 0 0 0 39 0 
0 0 0 0 0 19 217 46 0 
0 36 0 0 0 0 0 0 0 
0 0 50 0 0 0 0 0 0 
0 17 0 0 0 0 0 0 0 
0 0 0 0 0 0 0 0 0 
0 0 0 0 0 0 0 0 0 
0 0 0 0 0 0 0 0 0 
0 0 0 0 0 0 18 0 0 
0 0 431 0 0 0 0 0 0 
0 0 0 0 0 0 0 0 0 
0 0 0 0 0 0 0 0 0 
20 0 0 0 0 0 0 0 0 
0 0 0 0 0 0 0 0 0 
0 0 0 0 0 0 0 0 0 
0 24 0 0 0 0 0 0 0 
0 0 0 0 0 0 0 0 0 
0 0 0 74 0 0 0 0 0 
0 0 0 0 0 0 0 0 0 
0 0 6 0 0 0 0 0 56 
0 0 0 0 0 0 0 0 0 
0 0 0 0 0 0 0 0 0 
0 0 0 0 0 0 0 0 0 
0 0 0 0 0 0 0 0 0 
0 0 0 0 0 0 0 0 0 
0 0 0 0 0 0 0 0 0 
0 0 0 0 16 0 0 426 0 
0 0 0 0 0 0 0 0 0 
0 0 0 0 0 0 0 0 0 
0 0 0 0 0 0 0 0 0 
0 0 0 0 452 0 0 0 0 
0 0 0 0 0 0 0 81 0 
0 0 0 0 0 0 0 0 0 
0 0 0 0 214 0 0 0 0 
0 0 0 0 0 0 0 0 0 
0 0 0 0 0 0 0 0 0 
0 0 0 0 0 0 0 0 0 
0 0 0 0 0 0 0 0 0 
0 0 0 0 0 0 0 0 0 
0 0 0 0 0 0 0 0 0 
0 0 0 0 0 0 0 0 0 
0 0 0 0 0 0 0 0 0 
0 0 0 0 0 0 0 0 0 
0 0 338 0 0 0 0 0 444 
0 0 0 0 0 0 0 0 0 
0 419 0 0 0 0 0 0 0 
0 0 0 0 0 0 0 0 0 
0 0 0 0 0 0 0 0 0 
0 0 0 0 0 0 0 0 0 
0 0 0 0 0 0 0 0 0 
0 0 0 0 0 0 0 0 0 
447 0 0 0 0 0 0 0 0 
0 0 0 0 0 0 0 0 0 
0 0 0 0 417 0 0 0 0 
0 0 0 0 0 0 0 0 0 
0 0 438 0 0 0 0 0 0 
0 0 0 0 0 0 0 0 0 
0 0 0 0 0 0 0 0 0 
433 0 0 0 0 0 365 0 0 
0 0 0 0 0 0 0 0 0 
0 0 0 0 0 429 0 0 0 
0 0 0 0 0 0 0 0 0 
0 0 0 0 0 0 0 0 0 
0 0 0 0 0 0 0 0 0 
0 0 0 0 0 0 0 0 0 
0 0 0 0 0 0 0 0 0 
0 0 0 0 0 0 0 0 0 
0 0 0 0 0 0 0 222 0 
0 0 0 0 0 0 0 0 0 
0 0 0 0 0 0 0 0 0 
0 0 0 0 0 0 0 0 0 
0 0 0 211 0 0 0 
cytokine 1 2500 double
0 0 0 0 0 0 0 0 0 
0 0 0 0 0 0 0 0 0 
0 0 0 0 0 0 0 0 0 
0 0 0 0 0 0 0 0 0 
0 0 0 0 0 0 0 0 0 
0 0 0 0 0 0 0 0 0 
0 0 0 0 0 0 0 0 0 
0 0 0 0 0 0 0 0 0 
0 0 0 0 0 0 0 0 0 
0 0 0 0 0 0 0 0 0 
0 0 0 0 0 0 0 0 0 
0 0 0 0 0 0 0 0 0 
0 0 0 0 0 0 0 0 0 
0 0 0 0 0 0 0 0 0 
0 0 0 0 0 0 0 0 0 
0 0 0 0 0 0 0 0 0 
0 0 0 0 0 0 0 0 0 
0 0 0 0 0 0 0 0 0 
0 0 0 0 0 0 0 0 0 
0 0 0 0 0 0 0 0 0 
0 0 0 0 0 0 0 0 0 
0 0 0 0 0 0 0 0 0 
0 0 0 0 0 0 0 0 0 
0 0 0 0 0 0 0 0 0 
0 0 0 0 0 0 0 0 0 
0 0 0 0 0 0 0 0 0 
0 0 0 0 0 0 0 0 0 
0 0 0 0 0 0 0 0 0 
0 0 0 0 0 0 0 0 0 
0 0 0 0 0 0 0 0 0 
0 0 0 0 0 0 0 0 0 
0 0 0 0 0 0 0 0 0 
0 0 0 0 0 0 0 0 0 
0 0 0 0 0 0 0 0 0 
0 0 0 0 0 0 0 0 0 
0 0 0 0 0 0 0 0 0 
0 0 0 0 0 0 0 0 0 
0 0 0 0 0 0 0 0 0 
0 0 0 0 0 0 0 0 0 
0 0 0 0 0 0 0 0 0 
0 0 0 0 0 0 0 0 0 
0 0 0 0 0 0 0 0 0 
0 0 0 0 0 0 0 0 0 
0 0 0 0 0 0 0 0 0 
0 0 0 0 0 0 0 0 0 
0 0 0 0 0 0 0 0 0 
0 0 0 0 0 0 0 0 0 
0 0 0 0 0 0 0 0 0 
0 0 0 0 0 0 0 0 0 
0 0 0 0 0 0 0 0 0 
0 0 0 0 0 0 0 0 0 
0 0 0 0 0 0 0 0 0 
0 0 0 0 0 0 0 0 0 
0 0 0 0 0 0 0 0 0 
0 0 0 0 0 0 0 0 0 
0 0 0 0 0 0 0 0 0 
0 0 0 0 0 0 0 0 0 
0 0 0 0 0 0 0 0 0 
0 0 0 0 0 0 0 0 0 
0 0 0 0 0 0 0 0 0 
0 0 0 0 0 0 0 0 0 
0 0 0 0 0 0 0 0 0 
0 0 0 0 0 0 0 0 0 
0 0 0 0 0 0 0 0 0 
0 0 0 0 0 0 0 0 0 
0 0 0 0 0 0 0 0 0 
0 0 0 0 0 0 0 0 0 
0 0 0 0 0 0 0 0 0 
0 0 0 0 0 0 0 0 0 
0 0 0 0 0 0 0 0 0 
0 0 0 0 0 0 0 0 0 
0 0 0 0 0 0 0 0 0 
0 0 0 0 0 0 0 0 0 
0 0 0 0 0 0 0 0 0 
0 0 0 0 0 0 0 0 0 
0 0 0 0 0 0 0 0 0 
0 0 0 0 0 0 0 0 0 
0 0 0 0 0 0 0 0 0 
0 0 0 0 0 0 0 0 0 
0 0 0 0 0 0 0 0 0 
0 0 0 0 0 0 0 0 0 
0 0 0 0 0 0 0 0 0 
0 0 0 0 0 0 0 0 0 
0 0 0 0 0 0 0 0 0 
0 0 0 0 0 0 0 0 0 
0 0 0 0 0 0 0 0 0 
0 0 0 0 0 0 0 0 0 
0 0 0 0 0 0 0 0 0 
0 0 0 0 0 0 0 0 0 
0 0 0 0 0 0 0 0 0 
0 0 0 0 0 0 0 0 0 
0 0 0 0 0 0 0 0 0 
0 0 0 0 0 0 0 0 0 
0 0 0 0 0 0 0 0 0 
0 0 0 0 0 0 0 0 0 
0 0 0 0 0 0 0 0 0 
0 0 0 0 0 0 0 0 0 
0 0 0 0 0 0 0 0 0 
0 0 0 0 0 0 0 0 0 
0 0 0 0 0 0 0 0 0 
0 0 0 0 0 0 0 0 0 
0 0 0 0 0 0 0 0 0 
0 0 0 0 0 0 0 0 0 
0 0 0 0 0 0 0 0 0 
0 0 0 0 0 0 0 0 0 
0 0 0 0 0 0 0 0 0 
0 0 0 0 0 0 0 0 0 
0 0 0 0 0 0 0 0 0 
0 0 0 0 0 0 0 0 0 
0 0 0 0 0 0 0 0 0 
0 0 0 0 0 0 0 0 0 
0 0 0 0 0 0 0 0 0 
0 0 0 0 0 0 0 0 0 
0 0 0 0 0 0 0 0 0 
0 0 0 0 0 0 0 0 0 
0 0 0 0 0 0 0 0 0 
0 0 0 0 0 0 0 0 0 
0 0 0 0 0 0 0 0 0 
0 0 0 0 0 0 0 0 0 
0 0 0 0 0 0 0 0 0 
0 0 0 0 0 0 0 0 0 
0 0 0 0 0 0 0 0 0 
0 0 0 0 0 0 0 0 0 
0 0 0 0 0 0 0 0 0 
0 0 0 0 0 0 0 0 0 
0 0 0 0 0 0 0 0 0 
0 0 0 0 0 0 0 0 0 
0 0 0 0 0 0 0 0 0 
0 0 0 0 0 0 0 0 0 
0 0 0 0 0 0 0 0 0 
0 0 0 0 0 0 0 0 0 
0 0 0 0 0 0 0 0 0 
0 0 0 0 0 0 0 0 0 
0 0 0 0 0 0 0 0 0 
0 0 0 0 0 0 0 0 0 
0 0 0 0 0 0 0 0 0 
0 0 0 0 0 0 0 0 0 
0 0 0 0 0 0 0 0 0 
0 0 0 0 0 0 0 0 0 
0 0 0 0 0 0 0 0 0 
0 0 0 0 0 0 0 0 0 
0 0 0 0 0 0 0 0 0 
0 0 0 0 0 0 0 0 0 
0 0 0 0 0 0 0 0 0 
0 0 0 0 0 0 0 0 0 
0 0 0 0 0 0 0 0 0 
0 0 0 0 0 0 0 0 0 
0 0 0 0 0 0 0 0 0 
0 0 0 0 0 0 0 0 0 
0 0 0 0 0 0 0 0 0 
0 0 0 0 0 0 0 0 0 
0 0 0 0 0 0 0 0 0 
0 0 0 0 0 0 0 0 0 
0 0 0 0 0 0 0 0 0 
0 0 0 0 0 0 0 0 0 
0 0 0 0 0 0 0 0 0 
0 0 0 0 0 0 0 0 0 
0 0 0 0 0 0 0 0 0 
0 0 0 0 0 0 0 0 0 
0 0 0 0 0 0 0 0 0 
0 0 0 0 0 0 0 0 0 
0 0 0 0 0 0 0 0 0 
0 0 0 0 0 0 0 0 0 
0 0 0 0 0 0 0 0 0 
0 0 0 0 0 0 0 0 0 
0 0 0 0 0 0 0 0 0 
0 0 0 0 0 0 0 0 0 
0 0 0 0 0 0 0 0 0 
0 0 0 0 0 0 0 0 0 
0 0 0 0 0 0 0 0 0 
0 0 0 0 0 0 0 0 0 
0 0 0 0 0 0 0 0 0 
0 0 0 0 0 0 0 0 0 
0 0 0 0 0 0 0 0 0 
0 0 0 0 0 0 0 0 0 
0 0 0 0 0 0 0 0 0 
0 0 0 0 0 0 0 0 0 
0 0 0 0 0 0 0 0 0 
0 0 0 0 0 0 0 0 0 
0 0 0 0 0 0 0 0 0 
0 0 0 0 0 0 0 0 0 
0 0 0 0 0 0 0 0 0 
0 0 0 0 0 0 0 0 0 
0 0 0 0 0 0 0 0 0 
0 0 0 0 0 0 0 0 0 
0 0 0 0 0 0 0 0 0 
0 0 0 0 0 0 0 0 0 
0 0 0 0 0 0 0 0 0 
0 0 0 0 0 0 0 0 0 
0 0 0 0 0 0 0 0 0 
0 0 0 0 0 0 0 0 0 
0 0 0 0 0 0 0 0 0 
0 0 0 0 0 0 0 0 0 
0 0 0 0 0 0 0 0 0 
0 0 0 0 0 0 0 0 0 
0 0 0 0 0 0 0 0 0 
0 0 0 0 0 0 0 0 0 
0 0 0 0 0 0 0 0 0 
0 0 0 0 0 0 0 0 0 
0 0 0 0 0 0 0 0 0 
0 0 0 0 0 0 0 0 0 
0 0 0 0 0 0 0 0 0 
0 0 0 0 0 0 0 0 0 
0 0 0 0 0 0 0 0 0 
0 0 0 0 0 0 0 0 0 
0 0 0 0 0 0 0 0 0 
0 0 0 0 0 0 0 0 0 
0 0 0 0 0 0 0 0 0 
0 0 0 0 0 0 0 0 0 
0 0 0 0 0 0 0 0 0 
0 0 0 0 0 0 0 0 0 
0 0 0 0 0 0 0 0 0 
0 0 0 0 0 0 0 0 0 
0 0 0 0 0 0 0 0 0 
0 0 0 0 0 0 0 0 0 
0 0 0 0 0 0 0 0 0 
0 0 0 0 0 0 0 0 0 
0 0 0 0 0 0 0 0 0 
0 0 0 0 0 0 0 0 0 
0 0 0 0 0 0 0 0 0 
0 0 0 0 0 0 0 0 0 
0 0 0 0 0 0 0 0 0 
0 0 0 0 0 0 0 0 0 
0 0 0 0 0 0 0 0 0 
0 0 0 0 0 0 0 0 0 
0 0 0 0 0 0 0 0 0 
0 0 0 0 0 0 0 0 0 
0 0 0 0 0 0 0 0 0 
0 0 0 0 0 0 0 0 0 
0 0 0 0 0 0 0 0 0 
0 0 0 0 0 0 0 0 0 
0 0 0 0 0 0 0 0 0 
0 0 0 0 0 0 0 0 0 
0 0 0 0 0 0 0 0 0 
0 0 0 0 0 0 0 0 0 
0 0 0 0 0 0 0 0 0 
0 0 0 0 0 0 0 0 0 
0 0 0 0 0 0 0 0 0 
0 0 0 0 0 0 0 0 0 
0 0 0 0 0 0 0 0 0 
0 0 0 0 0 0 0 0 0 
0 0 0 0 0 0 0 0 0 
0 0 0 0 0 0 0 0 0 
0 0 0 0 0 0 0 0 0 
0 0 0 0 0 0 0 0 0 
0 0 0 0 0 0 0 0 0 
0 0 0 0 0 0 0 0 0 
0 0 0 0 0 0 0 0 0 
0 0 0 0 0 0 0 0 0 
0 0 0 0 0 0 0 0 0 
0 0 0 0 0 0 0 0 0 
0 0 0 0 0 0 0 0 0 
0 0 0 0 0 0 0 0 0 
0 0 0 0 0 0 0 0 0 
0 0 0 0 0 0 0 0 0 
0 0 0 0 0 0 0 0 0 
0 0 0 0 0 0 0 0 0 
0 0 0 0 0 0 0 0 0 
0 0 0 0 0 0 0 0 0 
0 0 0 0 0 0 0 0 0 
0 0 0 0 0 0 0 0 0 
0 0 0 0 0 0 0 0 0 
0 0 0 0 0 0 0 0 0 
0 0 0 0 0 0 0 0 0 
0 0 0 0 0 0 0 0 0 
0 0 0 0 0 0 0 0 0 
0 0 0 0 0 0 0 0 0 
0 0 0 0 0 0 0 0 0 
0 0 0 0 0 0 0 0 0 
0 0 0 0 0 0 0 0 0 
0 0 0 0 0 0 0 0 0 
0 0 0 0 0 0 0 0 0 
0 0 0 0 0 0 0 0 0 
0 0 0 0 0 0 0 0 0 
0 0 0 0 0 0 0 0 0 
0 0 0 0 0 0 0 0 0 
0 0 0 0 0 0 0 0 0 
0 0 0 0 0 0 0 
il1 1 2500 double
9.8901725863e-18 4.0933404513e-16 1.4419853319e-14 4.3126431788e-13 1.0590634272e-11 2.0391917321e-10 2.4878137328e-09 1.5557793276e-08 3.5816722921e-09 
5.4064913657e-10 1.1617509177e-09 1.7267295926e-10 2.6317550569e-11 2.8555457998e-10 9.4630570047e-09 2.9536440138e-07 2.4219996675e-08 1.0923136529e-07 
1.8120646317e-08 1.5815974308e-08 2.3141195626e-09 1.7967136112e-10 1.6576172726e-11 1.1390078464e-10 9.2929808293e-10 2.9767507903e-10 2.372742669e-09 
1.5691611566e-08 2.3175328323e-09 3.4621153167e-10 2.2859598658e-09 1.5894302763e-08 1.8203492047e-08 1.1395250965e-07 1.5990698543e-08 1.147988038e-09 
1.2800062399e-10 7.5458767013e-10 3.6821307114e-10 3.1895883712e-09 1.5088813754e-08 2.1597139632e-09 1.7486352644e-10 2.6040722356e-10 3.2072471345e-09 
3.1162560532e-08 1.2096326429e-07 1.6229170896e-08 1.1157484936e-09 5.3780011694e-11 6.3321436897e-17 2.6352327896e-15 9.3109940873e-14 2.7774536143e-12 
6.7207281407e-11 1.2383916115e-09 1.5487339411e-08 9.9824262634e-08 2.9281443048e-08 5.4983844144e-09 1.5143180931e-08 2.2211996686e-09 3.1650287946e-10 
2.0315797933e-09 1.4143354043e-08 1.0400357908e-08 2.6391973051e-09 1.5928584673e-08 1.5843170331e-08 8.948914143e-08 1.3608822513e-08 1.0621514779e-09 
1.6446093098e-10 1.7648260631e-09 1.4587197228e-08 3.1072389106e-09 1.6634066569e-08 1.0834815356e-07 1.5530389419e-08 2.1769439584e-09 1.3788818976e-08 
9.2366569504e-08 1.5854743296e-08 1.6036642236e-08 2.1862562871e-09 2.3162116669e-10 1.4880293664e-09 1.5585470692e-08 4.5013344163e-09 2.9292785086e-08 
1.0027058295e-07 1.4098344714e-08 1.2164179664e-09 2.064682203e-09 1.4404085036e-08 1.0520521698e-07 2.968294055e-08 3.0869626855e-09 1.9213043656e-10 
8.8112945759e-12 4.3119519125e-17 1.9147971748e-15 7.3547897915e-14 2.420276219e-12 6.5447085251e-11 1.3642698082e-09 1.9572913956e-08 1.4862867204e-07 
1.1835684433e-07 3.1267827438e-08 1.170252304e-07 1.6202250208e-08 2.2084580831e-09 1.3945546051e-08 9.6642821745e-08 1.4021923178e-08 1.2039230723e-09 
1.4726734276e-09 3.4840423879e-09 1.4852694186e-08 2.2776140973e-09 2.6438690126e-10 9.0605062342e-10 1.4599654818e-08 1.2231100754e-07 1.8695104131e-08 
3.1206560891e-08 1.4304282558e-07 1.6766808386e-08 1.2372262104e-09 2.2727848492e-09 1.4763155143e-08 2.3726545173e-09 1.2203357214e-09 1.9411375285e-10 
8.7210949573e-10 1.6471396691e-08 1.7463784729e-07 3.2811140471e-08 1.2676788685e-07 3.0227294445e-08 3.2504954284e-09 2.2897586049e-09 1.3984147174e-08 
4.0299164006e-09 1.5308609491e-08 1.6273833836e-08 1.2397513016e-09 5.5297329216e-11 2.1102115281e-12 1.3041033076e-16 4.383356115e-15 1.3109553319e-13 
3.4367326693e-12 7.5196626703e-11 1.2891991918e-09 1.5643374596e-08 1.0775941206e-07 3.3732371207e-07 3.5274005938e-08 4.2354625407e-07 2.5391400982e-08 
1.5493595296e-09 2.083011541e-09 1.3888563188e-08 2.0317754146e-09 3.3688615786e-10 2.3578266006e-09 1.5830982747e-08 1.7990933188e-08 2.6906266104e-09 
1.2156385898e-09 3.802312909e-10 3.6840634987e-09 3.2085139878e-08 3.0986715416e-08 9.3293856196e-08 2.9323681261e-08 3.0767866033e-09 1.3918288744e-09 
2.3927448911e-09 1.4764546918e-08 2.2326285265e-09 2.3200612265e-10 1.9944662588e-10 2.0517749721e-09 1.526819382e-08 1.0908996728e-07 3.1072094231e-08 
1.1693572333e-07 1.7053793044e-08 2.4521691344e-09 1.497284785e-08 9.52861825e-08 1.4438181317e-08 1.531727456e-08 1.983858624e-07 1.4284665006e-08 
5.9488436399e-10 2.396226273e-11 1.6298054223e-15 3.8498619847e-14 7.9452400605e-13 1.3822533396e-11 1.77266965e-10 1.2519496551e-09 2.582541736e-09 
1.6547430093e-08 2.5335443965e-08 1.8609759067e-08 1.2069538968e-07 1.6284408488e-08 1.1783753973e-09 2.0710116955e-10 1.0280433171e-09 2.5655094715e-10 
1.1462294447e-09 1.4645696211e-08 1.0225281244e-07 1.2095320301e-07 1.8927721612e-08 1.5170638079e-08 2.9988831418e-09 1.5811311371e-08 1.3996688608e-07 
1.1182368809e-07 2.8392690865e-08 4.2156997893e-09 2.4681825472e-09 1.464086008e-08 1.5817944288e-08 9.2388575013e-08 1.379792014e-08 1.1818379608e-09 
1.9605874702e-09 1.4397088854e-08 4.0263126166e-09 1.4851670116e-08 5.2305457743e-09 1.5625319705e-08 2.3542170435e-09 2.5088879863e-09 1.6932158786e-08 
1.6082768894e-08 2.2666819532e-09 1.4136884996e-09 1.6129037661e-08 1.5824037192e-08 1.9874180079e-09 2.1326784783e-10 3.4017490295e-14 6.363132677e-13 
1.0777414551e-11 1.6724621688e-10 2.1060322375e-09 1.3572798885e-08 3.2115696769e-09 1.5664927133e-08 1.1399448141e-07 1.6536958469e-08 1.6017610349e-08 
2.1975472553e-09 1.6018603111e-10 2.5540377105e-11 1.9205965984e-10 1.0124771022e-09 3.7262373742e-10 3.3237244068e-09 2.9259155099e-08 1.0900782854e-07 
2.9812625257e-08 9.7844704783e-08 1.405780381e-08 2.8865709822e-09 1.6651327428e-08 1.5710682533e-08 3.250438807e-09 1.4104960533e-09 1.3616536343e-08 
8.9380719714e-08 1.583228304e-08 1.6009192194e-08 3.4020417594e-09 1.2994365584e-09 1.4259578407e-08 1.0816368956e-07 1.4537835824e-08 4.0226311171e-09 
1.4976459184e-08 1.4928669856e-08 2.1142856355e-09 1.597844701e-08 1.0899780989e-07 1.800871452e-08 1.7985266609e-09 3.8396952284e-09 2.98764391e-08 
4.7519327495e-07 1.5107740836e-08 2.3368000868e-09 6.4687215003e-13 9.5186749108e-12 1.0558779545e-10 1.0684452212e-09 1.3520523368e-08 8.7802085602e-08 
1.364908897e-08 2.9962934356e-09 1.4908273727e-08 2.0312336257e-09 1.1814046408e-09 1.5956286292e-10 1.8429055157e-11 1.4211792854e-10 1.9786778882e-09 
1.409714212e-08 1.9993333655e-09 4.8145920584e-10 3.3002172106e-09 1.5060065195e-08 4.2508330189e-09 1.4056691811e-08 2.0342172391e-09 2.642847885e-10 
1.0209212364e-09 1.1367737862e-09 2.2281307355e-10 1.8603450724e-10 2.1025843289e-09 1.3776472407e-08 4.5472883237e-09 1.6704003514e-08 1.5752647187e-08 
2.4315027769e-09 2.0798895939e-09 1.4294867512e-08 2.9151063785e-09 1.4500955103e-08 1.1173798242e-07 2.4503870577e-07 1.4150133509e-08 1.6150666582e-08 
1.0514308713e-07 2.95435445e-08 6.1589626732e-09 2.888361017e-08 1.2503339519e-07 2.9611932462e-08 5.3011897094e-09 1.6789631019e-08 1.1417398277e-11 
1.4703889495e-10 1.0184205701e-09 3.2387345583e-10 2.1761878966e-09 1.357967605e-08 2.1550876639e-09 1.2372918246e-09 1.4345957311e-08 1.0751438628e-09 
9.3513329025e-11 1.0466475776e-11 4.8439578737e-11 1.0021831143e-09 1.4191168241e-08 1.0240254511e-07 1.4192536923e-08 1.0242557913e-09 2.7183919005e-10 
1.1142038403e-09 3.1655028598e-10 1.0296694608e-09 1.5052500912e-10 1.6369074499e-11 4.5043836716e-11 5.6253769004e-11 1.0990945133e-11 1.6461216071e-11 
2.2462681715e-10 2.1855712795e-09 1.4623135591e-08 9.8555545947e-08 9.9800594455e-08 1.4564954576e-08 1.2589730369e-09 1.0305177822e-09 3.3675626177e-10 
2.1637571734e-09 1.6592025531e-08 2.7834261118e-08 2.9691107351e-09 3.4687295258e-09 2.8464025803e-08 9.4923990446e-08 2.8179087508e-08 1.0424407293e-07 
2.8783826878e-08 5.087824384e-09 1.6884531107e-08 1.1297706237e-07 1.5390665131e-10 2.0041071025e-09 1.3961066969e-08 2.2309414316e-09 1.5171665035e-09 
2.2708834813e-09 8.0959938753e-10 1.3442236657e-08 1.9476736668e-07 1.3416536326e-08 4.766442796e-10 1.2278429141e-11 1.4058144406e-11 2.8442009858e-10 
3.9562260135e-09 2.8043341871e-08 3.9562908505e-09 2.8546204289e-10 2.4688858596e-11 5.6755614097e-11 1.6044929274e-11 5.1025499798e-11 8.2554969805e-12 
9.6643483147e-12 5.7619350263e-11 1.1085715679e-11 1.1611164504e-12 1.1781180415e-12 1.8525880482e-11 2.3706306362e-10 2.3075477085e-09 1.5507943374e-08 
1.5671302478e-08 3.1006734957e-09 2.890699069e-10 2.2153946733e-10 1.111379988e-09 1.2974289421e-09 1.5077517901e-08 1.0186079891e-07 1.4105160595e-08 
1.4818175575e-09 5.2987325638e-09 2.7896730259e-08 7.093780674e-09 1.4613045884e-08 3.084605904e-09 7.7394934905e-09 1.8415160952e-08 1.2775119274e-07 
1.0586980181e-09 1.3960850254e-08 9.8496947487e-08 1.7133702457e-08 1.6961614335e-08 1.5956327815e-08 2.2532684607e-09 1.1118684862e-09 1.342215139e-08 
9.47806722e-10 3.4481535682e-11 2.6599343388e-12 4.8898458199e-11 1.0106381287e-09 1.413911388e-08 1.0079936885e-07 1.4139115656e-08 1.0106698811e-09 
4.9243529393e-11 3.9638682961e-12 7.0109044438e-13 2.6438103009e-12 1.3671088567e-11 1.6693364746e-10 1.0610697876e-09 1.6862500285e-10 1.3708345223e-11 