# vtk DataFile Version 5.1
vtk output
ASCII
DATASET STRUCTURED_POINTS
DIMENSIONS 100 100 1
SPACING 1 1 1
ORIGIN 0 0 0
POINT_DATA 10000
FIELD FieldData 6
feature_1 1 10000 float
0 0 0 2.76712e-11 0 1.2425e-11 1.55143e-11 0 3.90308e-11 
0 3.77938e-11 4.20488e-12 6.37452e-11 4.22688e-11 0 3.1823e-12 0 1.69798e-11 
3.97812e-11 1.98542e-11 5.29978e-11 3.79809e-11 0 2.7282e-14 3.13987e-11 0 3.48644e-11 
1.80089e-11 3.925e-11 0 6.1021e-12 0 1.17408e-11 0 2.31944e-11 1.98565e-11 
0 7.30809e-11 0 0 9.15095e-12 1.68018e-11 0 1.66813e-11 0 
0 0 0 4.85027e-11 0 0 0 0 4.528e-11 
1.70593e-11 0 0 4.90063e-13 2.51368e-11 1.74659e-11 0 0 0 
0 2.84513e-11 0 0 1.5366e-11 0 3.43233e-12 0 0 
3.83337e-12 0 0 0 0 2.31879e-12 0 0 0 
1.45222e-11 1.21854e-11 1.01246e-12 0 1.91308e-11 0 0 1.9091e-11 0 
0 3.78541e-11 0 0 0 0 0 2.44984e-11 0 
0 0 0 1.36381e-11 0 0 0 7.90352e-11 0 
2.22171e-12 4.21401e-11 1.09713e-11 4.24668e-11 1.89139e-11 4.87952e-11 0 0 0 
0 0 0 5.08917e-11 4.46686e-11 0 1.44103e-11 2.23412e-11 0 
3.1191e-11 0 2.00517e-11 1.59379e-11 4.40975e-11 9.82019e-12 0 2.41481e-11 0 
0 2.78447e-11 0 1.41984e-11 0 3.53251e-11 1.81711e-11 0 0 
0 0 1.30506e-11 3.38919e-11 0 2.69063e-11 0 4.03846e-12 0 
0 0 0 0 3.12003e-11 0 3.30998e-11 1.8258e-11 2.77808e-12 
0 0 0 0 0 0 5.03237e-11 0 8.31395e-12 
0 0 3.35243e-11 2.68266e-11 1.35807e-11 0 1.32447e-11 0 0 
0 1.12116e-11 0 0 0 0 0 9.66345e-12 0 
3.09427e-11 0 1.18074e-11 0 0 3.75635e-11 8.69061e-12 3.31212e-11 1.21766e-11 
1.97746e-11 0 2.69948e-11 0 0 2.73066e-11 0 4.12697e-12 0 
3.22985e-11 4.55077e-11 0 0 4.22185e-11 2.90118e-12 0 0 0 
2.31545e-11 1.8791e-11 6.67094e-12 6.12869e-12 0 2.08561e-11 0 2.32583e-11 1.64209e-11 
4.81039e-11 0 0 0 5.27667e-11 0 0 3.22425e-11 0 
0 6.72623e-12 3.44287e-11 0 0 3.96689e-11 2.11376e-11 0 2.80217e-11 
0 0 0 0 8.65534e-12 8.18574e-13 0 8.60287e-12 0 
0 0 0 2.34542e-11 0 1.21925e-11 3.46402e-11 0 0 
3.45033e-11 0 0 0 0 0 0 3.73155e-11 0 
0 1.83032e-11 0 0 2.73265e-11 0 8.05107e-12 4.13668e-12 0 
0 3.47334e-11 0 0 2.98994e-11 3.58027e-11 0 1.81436e-11 1.86659e-12 
0 4.42001e-11 0 4.25749e-11 0 9.89754e-12 0 1.78051e-11 2.98981e-11 
0 0 3.10749e-11 0 2.05344e-11 0 4.07108e-11 0 0 
0 2.29269e-11 0 0 1.06978e-11 0 1.31959e-11 9.9225e-12 1.17837e-12 
3.29506e-11 0 0 2.40759e-11 2.91778e-11 0 0 0 0 
0 8.34064e-12 1.51003e-11 1.90372e-11 3.38584e-11 0 0 0 0 
1.50409e-11 0 0 0 3.13057e-11 0 0 1.22815e-11 0 
4.05047e-12 2.28673e-11 0 0 9.31811e-12 0 0 1.14993e-11 0 
0 0 1.98507e-11 2.66299e-11 4.50425e-11 4.18049e-11 1.36358e-11 0 0 
4.36269e-12 3.28672e-11 4.05216e-11 3.44511e-12 0 3.13022e-11 4.35368e-11 0 0 
0 0 0 8.82916e-12 0 3.20628e-11 0 0 0 
2.30848e-11 5.26859e-11 0 0 2.74266e-11 6.43319e-11 0 0 0 
0 6.07707e-11 3.39228e-11 3.41271e-11 0 3.87087e-11 0 4.44242e-11 0 
1.43634e-11 0 0 2.68919e-11 0 2.80023e-11 2.62056e-11 1.91084e-11 1.21234e-11 
0 0 9.92239e-12 0 0 0 0 4.79992e-11 1.32312e-11 
2.60076e-11 0 0 1.24641e-11 0 4.7342e-11 2.35623e-11 0 0 
1.80689e-11 0 2.68169e-11 0 0 0 0 6.05762e-11 0 
5.78223e-12 2.3526e-11 0 0 2.39167e-11 2.08169e-11 2.20908e-11 0 0 
0 0 0 6.63736e-12 2.41632e-11 2.25924e-11 0 6.03795e-11 4.16795e-11 
1.78189e-11 0 0 6.74879e-12 7.72219e-12 2.01871e-12 0 4.11237e-11 8.15603e-12 
0 6.05747e-11 0 0 0 1.23607e-11 0 0 0 
2.13624e-11 5.10488e-12 2.33746e-11 0 0 0 5.03098e-11 7.12549e-11 0 
1.29278e-11 0 0 1.93016e-11 0 0 4e-11 5.13667e-11 3.20626e-11 
3.78564e-11 0 0 0 0 1.91768e-11 2.15172e-11 3.62433e-11 8.56633e-12 
1.98111e-12 0 4.2868e-11 0 1.27467e-11 0 1.38111e-11 7.16897e-11 0 
4.95171e-11 0 0 0 0 1.08179e-11 0 2.59311e-11 0 
0 4.10915e-11 1.07585e-11 0 0 0 0 2.11935e-11 0 
5.60902e-12 5.09651e-11 1.55965e-11 0 4.12424e-11 0 0 0 1.07447e-11 
1.66802e-11 0 0 0 0 0 2.29451e-11 2.93836e-11 2.40439e-13 
0 0 5.62308e-11 4.66559e-12 4.50525e-11 4.48555e-12 1.9567e-11 0 0 
3.36877e-11 9.56891e-12 0 0 7.09652e-12 2.44868e-11 0 0 1.96706e-11 
5.67604e-11 0 1.35134e-11 0 0 3.17854e-11 0 5.39953e-11 0 
0 0 2.68844e-11 2.33788e-11 1.06606e-11 0 3.37199e-11 0 0 
0 2.19885e-11 0 0 0 0 1.46058e-11 0 1.13868e-11 
0 0 6.63639e-11 2.61439e-11 2.35285e-11 1.43279e-11 0 0 0 
0 0 3.33271e-11 1.00086e-11 5.87952e-12 0 0 0 0 
0 0 0 0 2.91654e-11 0 0 2.55119e-11 2.1424e-11 
1.34367e-11 1.31385e-11 1.25792e-11 3.36453e-11 1.35992e-11 1.89631e-12 0 0 2.27638e-11 
0 1.67348e-11 2.46698e-11 0 0 2.3132e-12 0 1.57231e-11 1.90105e-11 
2.4514e-11 2.31187e-11 0 0 4.6178e-12 4.47927e-11 0 1.61312e-11 0 
3.61198e-11 0 0 2.54629e-11 0 0 0 0 0 
0 0 4.18753e-11 0 0 2.57927e-11 0 0 1.9251e-12 
2.67518e-11 0 5.86289e-11 0 1.71158e-11 0 0 0 0 
3.386e-11 5.78999e-12 0 0 0 0 5.22748e-12 3.25803e-11 0 
2.97692e-11 0 0 0 1.34881e-11 1.08118e-11 2.61101e-11 0 1.48846e-11 
0 0 5.11064e-12 2.08046e-11 3.78217e-11 0 0 2.84154e-11 1.7293e-11 
0 7.69852e-12 0 0 0 0 0 3.77079e-11 6.86962e-11 
0 0 0 4.94395e-11 0 2.84891e-11 0 0 0 
0 0 4.09216e-11 3.12442e-11 1.20476e-11 1.76053e-11 0 9.83572e-12 0 
0 3.28409e-11 0 0 0 0 3.43161e-11 0 1.12981e-11 
2.70569e-11 0 2.51346e-11 9.57889e-12 2.79703e-11 2.30592e-11 2.23586e-11 1.86115e-11 0 
1.16247e-11 5.65478e-12 0 0 2.17907e-11 0 6.01455e-11 2.99728e-11 3.91524e-11 
1.6279e-11 0 4.48784e-12 0 0 5.25896e-11 8.36146e-12 0 0 
0 0 0 7.58002e-13 1.90503e-11 0 0 0 0 
0 0 0 2.51404e-11 0 0 0 9.00168e-12 7.17563e-12 
0 0 0 0 0 0 0 1.34651e-11 0 
8.8456e-12 0 0 2.50074e-11 3.81037e-11 0 0 3.84839e-11 1.31503e-11 
0 0 0 6.58605e-12 0 1.23987e-11 0 3.54038e-11 0 
0 0 0 1.84213e-11 0 3.99125e-11 2.02261e-11 5.89115e-11 2.82855e-11 
0 0 0 1.30117e-11 1.50389e-12 0 0 3.76336e-11 0 
1.00604e-12 0 0 2.2315e-11 1.99417e-11 2.66086e-11 1.67922e-11 0 2.10504e-11 
5.18828e-12 0 0 1.56182e-11 4.40151e-11 0 3.6897e-11 0 2.76972e-11 
0 1.45725e-11 5.52728e-12 0 0 0 4.67081e-11 0 1.92169e-10 
5.20376e-10 5.60305e-12 0 2.17008e-11 0 1.21282e-11 2.06302e-11 1.06499e-11 0 
4.10098e-11 4.93773e-11 3.68581e-11 0 3.31177e-11 2.34654e-11 2.04016e-11 0 3.78345e-11 
0 3.75449e-11 5.44601e-11 2.90715e-11 7.29709e-12 1.50079e-11 0 0 2.83706e-11 
0 0 0 0 7.97535e-11 7.94004e-12 0 0 6.43547e-12 
0 0 4.59147e-11 4.7457e-11 4.57689e-11 2.61765e-11 1.93699e-11 0 1.39574e-11 
0 2.52393e-11 0 7.72322e-12 0 0 0 0 0 
0 0 0 0 1.14082e-11 0 0 0 1.38787e-11 
0 3.64243e-11 5.68991e-12 6.56529e-12 0 0 0 0 0 
0 3.71734e-11 0 2.31915e-11 1.24404e-11 7.5949e-12 0 0 1.67901e-11 
8.93766e-11 8.8159e-11 0 0 0 0 0 0 0 
1.77507e-11 1.91988e-11 1.00194e-11 7.90042e-11 2.61918e-11 1.10277e-12 2.47935e-11 0 1.31277e-10 
0 0 5.35843e-11 0 0 1.78165e-11 1.94204e-11 1.16987e-12 3.48367e-11 
1.14581e-11 0 1.74846e-11 9.21581e-12 1.53185e-10 0 0 0 1.10438e-10 
0 3.6422e-12 1.46881e-12 0 1.86986e-11 5.16327e-11 1.30349e-11 8.16093e-12 1.73084e-11 
5.40731e-11 3.97024e-11 1.69754e-11 0 3.1926e-11 1.24482e-10 5.23678e-11 2.15667e-11 0 
2.00518e-11 0 0 2.02631e-11 1.00252e-11 2.61677e-12 0 0 0 
0 0 0 2.90676e-11 7.51475e-12 0 3.99013e-11 0 0 
3.56951e-11 1.65798e-11 0 2.2345e-11 0 0 1.88692e-11 2.91779e-11 0 
0 2.58076e-11 2.92107e-11 0 1.95009e-11 0 0 0 0 
2.2644e-11 9.58373e-12 0 0 2.35477e-11 1.25858e-11 0 3.9761e-11 0 
0 5.54857e-11 1.41147e-10 2.38631e-11 1.78658e-10 0 0 0 0 
0 1.33129e-11 7.38931e-11 2.71899e-11 0 3.05318e-11 0 1.53481e-11 0 
0 0 0 3.24683e-12 3.77362e-11 2.09522e-10 9.09895e-11 0 0 
6.87992e-12 2.05601e-11 7.29141e-12 2.02645e-10 0 0 0 2.70304e-09 5.20716e-10 
0 2.59857e-11 0 3.30039e-11 0 2.43306e-11 3.61338e-11 0 1.60118e-11 
0 6.95623e-11 0 0 2.32699e-11 0 5.23503e-11 0 0 
6.4802e-11 0 1.44751e-11 0 0 0 8.94785e-12 1.10934e-11 1.08613e-11 
0 9.96869e-12 0 5.38667e-11 0 5.75288e-12 0 1.40956e-11 0 
0 0 0 0 0 0 0 2.59109e-11 2.36411e-11 
3.57131e-11 1.23865e-11 3.80543e-11 3.93218e-11 0 0 0 0 2.85558e-11 
0 0 0 1.23337e-11 2.54714e-11 5.18791e-11 0 0 1.18853e-10 
0 8.15136e-12 0 6.08473e-10 0 0 1.39083e-10 0 4.45594e-12 
3.11656e-11 3.67343e-12 0 1.12824e-10 3.91887e-11 0 1.5167e-11 0 0 
0 0 0 2.11594e-10 1.49333e-11 0 3.54468e-10 1.92257e-10 4.51002e-11 
0 0 0 0 3.20066e-11 0 1.50013e-11 0 4.89327e-11 
6.2893e-12 0 0 3.35586e-11 0 0 4.85958e-11 3.79517e-11 0 
1.13782e-10 0 0 0 5.47818e-10 0 0 0 0 
0 2.26085e-11 1.8093e-11 0 3.38645e-11 1.09336e-11 1.65768e-11 1.53178e-11 1.33913e-11 
0 1.77091e-11 0 8.60022e-12 0 0 2.75003e-11 1.36858e-11 0 
0 0 0 1.68147e-11 0 4.5111e-11 3.02663e-11 2.46767e-11 1.60121e-11 
0 1.87295e-11 0 1.44869e-12 1.51655e-11 4.87903e-11 0 0 0 
0 2.53125e-11 0 0 0 0 0 0 0 
0 0 3.29821e-11 3.05931e-11 0 2.8343e-11 0 0 0 
0 0 1.64968e-11 1.76796e-10 0 1.81456e-11 4.93837e-11 0 0 
0 2.31951e-11 0 7.89311e-07 5.91086e-09 1.98816e-09 1.0766e-11 0 1.49362e-11 
0 0 0 1.39856e-12 6.77772e-11 0 9.55903e-12 0 6.4323e-07 
0 0 3.89353e-12 0 3.60004e-11 3.45813e-11 3.65522e-11 0 3.32527e-11 
2.20912e-11 0 4.03639e-12 0 1.2071e-10 4.05244e-11 0 4.54347e-10 3.09401e-10 
1.15957e-10 0 0 0 0 0 0 0 9.65752e-12 
0 0 1.71845e-11 0 0 4.01614e-11 0 0 0 
0 0 0 1.5385e-11 0 6.76862e-12 2.86203e-11 1.01761e-11 0 
0 0 2.52438e-11 0 0 1.28282e-11 0 1.73531e-11 0 
2.12477e-11 0 4.88075e-11 0 0 0 2.10454e-11 0 5.30947e-11 
0 1.08102e-11 0 0 0 3.16395e-11 0 2.45814e-11 8.39418e-12 
0 0 1.93869e-10 0 0 0 0 0 0 
3.38064e-09 0 1.22239e-11 8.29943e-07 3.76421e-11 8.76055e-09 0 0 5.49116e-10 
6.71221e-10 2.4875e-10 1.23938e-11 4.80729e-12 0 0 0 4.06986e-11 0 
4.91712e-11 1.13535e-10 1.91568e-09 1.49323e-09 8.63024e-10 0 1.23899e-10 6.30454e-10 0 
0 0 3.09206e-11 3.90406e-11 0 0 2.87519e-12 0 0 
0 1.70767e-09 0 3.46238e-11 0 8.67816e-11 0 0 0 
0 2.1246e-11 5.05472e-11 0 0 0 3.72907e-11 0 0 
2.06755e-11 3.01586e-11 2.46011e-11 7.55723e-12 0 0 0 0 5.69186e-12 
8.46254e-12 0 2.89202e-12 1.01397e-11 0 1.85181e-11 0 0 8.68636e-12 
0 0 2.10873e-13 0 0 0 3.78402e-11 0 2.56395e-11 
0 0 0 0 0 6.45174e-07 1.2544e-11 0 3.80266e-11 
1.57719e-10 2.29638e-10 3.2171e-12 2.16341e-09 0 8.86391e-09 1.54222e-10 3.2473e-10 1.73098e-09 
1.83605e-11 0 0 5.63046e-11 0 0 1.97993e-12 5.70438e-11 1.47569e-09 
2.27879e-12 0 0 1.14418e-11 4.19249e-11 0 0 0 0 
1.41029e-11 0 4.78476e-12 1.30931e-10 4.86528e-11 4.65564e-11 0 0 0 
5.90321e-12 0 0 9.52023e-11 1.37454e-11 0 2.15968e-09 6.00961e-10 0 
6.44627e-07 0 0 1.19082e-09 4.0078e-10 0 0 0 0 
0 0 0 0 7.20052e-12 7.7813e-12 1.62016e-11 0 0 
0 2.27965e-11 5.42301e-13 1.13824e-11 1.9024e-11 0 0 4.73747e-11 1.17624e-11 
0 2.98327e-11 3.11143e-11 2.67095e-11 0 0 4.31139e-11 1.29008e-11 0 
0 0 0 0 3.39268e-11 2.65421e-11 2.06861e-11 0 0 
3.05723e-11 0 4.62534e-12 2.62563e-11 1.36838e-11 0 0 4.05796e-11 1.22926e-11 
0 0 0 1.2078e-10 0 3.25327e-09 6.44948e-07 0 2.597e-09 
9.0269e-11 0 0 2.17177e-11 0 0 7.94186e-07 1.31509e-12 0 
7.03343e-10 0 2.73612e-11 2.42084e-11 3.68468e-12 4.4008e-11 2.7743e-11 3.67144e-11 0 
2.82757e-11 1.57939e-10 0 2.00233e-11 0 0 0 1.27582e-11 0 
1.11486e-10 2.8453e-10 0 4.07081e-11 0 0 4.56864e-12 0 3.23765e-11 
0 0 7.7156e-12 0 4.52767e-10 0 0 1.84613e-11 0 
0 0 1.90982e-11 0 0 0 0 0 2.09164e-11 
0 0 0 0 3.15171e-11 5.61791e-11 0 3.82279e-11 0 
0 0 4.6077e-12 0 0 4.52049e-11 7.11008e-12 2.41573e-11 2.84351e-12 
0 0 0 4.11518e-11 3.66145e-11 1.03735e-11 0 7.61483e-11 6.24865e-12 
0 1.13711e-10 6.08116e-11 5.83649e-10 0 0 1.64393e-09 1.44465e-11 1.51333e-11 
0 0 0 2.35174e-11 2.12342e-11 2.99942e-11 1.7298e-09 0 0 
5.14151e-11 0 6.11444e-10 0 0 7.386e-07 1.17437e-08 8.94953e-12 0 
0 0 6.87052e-07 0 5.31466e-10 1.17992e-09 0 3.23721e-11 1.97592e-10 
0 3.22183e-10 0 0 2.11347e-09 0 0 0 0 
1.58057e-10 0 0 9.33019e-10 0 0 4.56463e-11 0 4.07957e-11 
0 9.56952e-11 0 0 6.91343e-11 0 9.13444e-12 0 0 
8.28895e-11 0 0 0 0 1.6029e-11 0 0 0 
0 0 0 0 0 0 0 7.2322e-11 5.47585e-11 
9.25211e-12 0 0 0 5.58449e-11 2.29788e-11 3.69444e-11 3.92993e-11 0 
2.4158e-11 2.31228e-11 0 0 5.75711e-11 0 4.90358e-11 4.27632e-11 2.16126e-11 
2.17378e-10 4.62373e-11 0 0 1.20618e-11 5.47752e-10 0 5.75151e-09 3.96028e-11 
2.3033e-09 2.92199e-11 4.04124e-10 3.69949e-10 0 2.28064e-10 0 2.259e-11 3.05027e-09 
0 0 0 0 1.31816e-09 0 1.78484e-11 4.07746e-11 0 
0 5.14154e-12 9.99736e-11 0 0 0 0 3.82924e-10 0 
4.34324e-11 0 6.84872e-11 0 0 0 0 7.16819e-07 1.36187e-11 
7.16611e-07 1.01048e-08 7.43253e-10 1.71462e-11 4.86465e-11 2.46567e-12 0 0 6.64781e-07 
0 0 0 0 1.00033e-10 2.84682e-11 2.60236e-11 0 0 
0 0 9.87608e-11 0 1.68027e-11 0 4.72808e-11 4.41907e-12 5.41335e-12 
1.45068e-11 0 0 0 5.20161e-12 1.70598e-11 1.47395e-11 1.31841e-11 0 
0 0 0 0 3.54381e-11 1.03617e-11 8.38087e-12 0 0 
0 4.77114e-11 0 0 5.55694e-11 0 0 1.83752e-11 1.59484e-11 
0 4.5242e-11 0 0 2.63183e-11 3.19248e-09 4.59928e-11 1.65875e-09 0 
2.967e-11 0 1.24149e-11 2.60774e-11 0 0 4.71658e-10 0 0 
1.20345e-10 0 0 3.88063e-09 4.4011e-09 3.16143e-10 4.7069e-10 0 0 
6.26038e-12 2.52691e-11 0 3.88072e-11 3.39357e-12 1.99361e-11 1.41344e-09 0 1.34428e-11 
1.44076e-10 0 2.06461e-11 0 0 0 0 3.95952e-10 0 
0 0 0 4.40697e-12 9.52612e-11 0 0 9.50761e-10 1.00433e-09 
0 4.78175e-10 1.80871e-09 0 1.87329e-09 4.34507e-11 0 3.7904e-11 0 
0 0 0 0 1.7511e-10 1.90541e-11 1.71137e-10 0 6.37783e-11 
0 3.2745e-11 0 0 0 0 1.38952e-11 0 1.818e-11 
6.77663e-12 0 5.03728e-12 3.2747e-11 1.83719e-11 1.50432e-11 1.68822e-11 0 3.06906e-11 
0 0 0 0 0 0 0 8.9351e-12 0 
1.5739e-11 0 0 1.02515e-10 7.75003e-12 1.88336e-10 0 1.72894e-09 1.7476e-09 
3.5048e-09 6.47767e-07 7.23485e-10 3.41288e-11 2.16958e-11 0 0 0 2.92116e-11 
4.0315e-11 0 0 4.29275e-10 6.48733e-07 1.48351e-11 0 0 2.24134e-11 
0 8.9461e-07 9.11227e-07 0 2.22797e-09 7.16983e-07 0 0 0 
1.34804e-10 0 2.70952e-11 0 0 4.94191e-11 1.33676e-10 0 0 
0 2.28708e-09 0 3.16804e-10 5.01182e-11 1.26291e-09 6.72083e-11 1.8489e-09 0 
0 0 0 1.24345e-09 1.32061e-09 4.22287e-12 2.16549e-10 0 0 
0 0 1.40658e-10 1.01198e-10 0 2.686e-11 4.31572e-10 0 2.45585e-10 
3.49836e-11 1.66372e-11 0 2.49645e-11 0 0 0 4.05599e-11 2.70746e-11 
5.606e-12 0 0 0 0 0 0 3.91627e-11 0 
5.90244e-12 3.59099e-11 2.2572e-11 3.32553e-11 0 0 5.24948e-12 2.46367e-11 1.28906e-11 
1.6818e-11 5.39598e-11 1.09504e-11 7.26782e-10 2.25866e-09 5.80677e-09 6.45107e-07 0 1.0125e-10 
0 0 0 6.42586e-11 0 2.46613e-11 0 9.35848e-11 0 
0 5.56223e-12 1.38705e-11 1.20824e-09 3.96018e-11 1.11062e-11 0 2.78202e-11 0 
0 0 0 0 8.09954e-13 0 0 0 8.4816e-10 
0 1.88709e-11 0 0 2.45214e-11 1.49582e-11 1.05538e-11 9.72232e-12 0 
6.30619e-12 8.00142e-10 0 0 0 0 6.63824e-10 0 0 
0 6.6624e-07 0 0 1.76945e-11 0 0 1.21071e-11 0 
4.16618e-10 1.57767e-10 0 2.78452e-11 9.85393e-12 1.78086e-11 0 1.51139e-09 0 
0 0 0 8.2393e-11 0 0 1.80009e-12 1.19952e-11 6.0605e-11 
2.29658e-11 3.35009e-11 1.87819e-11 0 0 0 3.97559e-11 0 0 
0 2.20418e-11 0 0 0 0 0 0 3.12078e-11 
0 0 7.25739e-12 0 0 1.20593e-09 0 7.45807e-12 0 
2.65279e-09 2.25672e-11 1.00414e-09 1.91317e-10 1.11302e-09 6.94159e-10 0 0 1.83675e-11 
0 0 8.65242e-11 0 9.45299e-12 0 0 1.09831e-11 6.37989e-10 
1.73703e-09 0 0 0 0 4.09072e-11 0 3.72922e-09 4.8017e-10 
0 0 0 9.21675e-12 6.26283e-11 2.49049e-10 7.67097e-12 4.06725e-11 0 
6.31206e-12 4.36482e-11 0 0 0 0 2.95082e-10 0 0 
0 6.15738e-11 0 0 0 0 8.43894e-11 0 1.49673e-09 
2.52117e-11 0 0 4.09323e-11 0 0 2.0335e-09 1.35028e-09 0 
0 0 0 0 7.31482e-12 0 0 2.12274e-11 1.95435e-12 
0 0 0 0 0 1.60133e-11 2.17836e-11 0 0 
0 0 7.20096e-11 0 0 4.73485e-11 0 4.10844e-11 0 
0 1.55765e-10 0 0 0 4.20726e-10 2.73081e-11 0 0 
0 0 2.1038e-11 0 0 4.90071e-11 0 5.62992e-11 0 
0 1.02236e-11 3.94486e-11 0 0 0 9.18679e-10 7.55757e-10 1.44053e-11 
5.20677e-10 2.64478e-10 5.61221e-10 1.75723e-11 0 0 0 8.43468e-12 0 
3.42e-11 3.40696e-10 1.91202e-09 2.77103e-11 0 0 0 2.56863e-10 4.09155e-11 
0 2.73119e-11 3.37705e-10 0 0 4.2791e-12 0 0 8.28442e-12 
3.27228e-10 0 4.48205e-11 8.49802e-11 0 1.4137e-09 8.30675e-12 1.40555e-11 0 
0 3.63882e-12 0 0 0 0 0 0 1.02542e-11 
7.16511e-07 0 0 0 0 0 0 4.62045e-11 2.80414e-11 
3.27159e-11 0 0 2.24122e-11 0 0 0 0 0 
0 0 0 5.67248e-12 0 0 0 0 0 
5.54515e-12 0 0 0 7.84215e-12 0 0 0 0 
0 8.70438e-10 0 4.15128e-10 0 2.60737e-11 0 9.66941e-10 3.61527e-10 
0 0 3.52149e-10 6.76586e-10 2.5034e-10 7.39132e-10 6.88317e-10 0 0 
0 2.12851e-11 6.88429e-11 0 2.32011e-09 0 0 8.73335e-07 8.70752e-07 
2.69883e-11 0 2.81336e-11 0 3.88947e-12 0 0 3.57444e-11 0 
0 1.00638e-10 2.30839e-11 0 1.92993e-10 8.96057e-11 5.03886e-11 0 6.45287e-07 
3.93931e-11 0 3.91868e-11 2.81939e-10 0 0 2.8569e-10 4.04794e-11 3.14254e-10 
1.83821e-11 6.53342e-07 8.38407e-09 2.28758e-11 5.11476e-11 1.60118e-11 0 1.31999e-11 2.22192e-09 
6.01862e-09 1.36526e-09 1.22193e-11 9.676e-12 2.35663e-11 3.38359e-10 0 0 0 
0 0 3.1751e-11 2.36029e-11 0 1.76464e-11 7.09738e-11 0 0 
7.76502e-11 0 0 1.87249e-11 3.38438e-11 0 0 1.67587e-10 3.62737e-11 
0 0 7.1944e-11 3.49478e-11 0 0 2.35459e-11 2.02528e-09 0 
1.08651e-11 6.21302e-10 0 0 8.55702e-11 3.46147e-10 0 0 0 
2.00228e-09 3.65324e-11 0 0 0 0 0 0 0 
2.99095e-11 1.28485e-11 0 3.13751e-11 0 1.83102e-09 0 1.79829e-10 2.6202e-09 
0 1.29216e-11 0 0 0 0 6.43918e-07 1.66177e-09 1.37221e-11 
1.12442e-09 0 1.59936e-10 3.82414e-11 0 0 0 3.30375e-09 0 
3.74333e-11 5.4415e-12 0 0 0 0 0 4.92795e-11 0 
0 1.17283e-11 1.84388e-09 5.93741e-10 0 0 0 4.38472e-11 0 
0 0 7.23307e-07 1.93272e-09 0 2.36929e-10 0 0 9.13827e-12 
1.28065e-11 0 0 0 0 0 2.17177e-11 0 0 
0 0 0 9.61548e-12 3.24317e-11 9.11156e-11 0 0 0 
0 0 4.35967e-11 0 0 1.90619e-10 4.55298e-12 0 0 
0 0 0 1.67755e-10 2.2014e-11 0 0 0 5.73483e-11 
0 0 2.32422e-09 0 1.64128e-09 0 0 7.04825e-10 2.32572e-11 
0 0 1.04163e-10 1.30003e-11 0 0 4.12908e-11 2.34875e-09 3.86026e-12 
5.87239e-09 0 1.08893e-11 2.55698e-10 2.67292e-09 0 6.35785e-10 2.84207e-09 9.90538e-10 
0 3.8942e-11 0 0 0 0 6.84401e-11 0 7.22196e-11 
0 0 1.78594e-09 0 0 0 9.64088e-09 6.52241e-07 0 
3.78982e-10 0 1.85499e-11 0 2.53239e-11 4.40813e-11 8.81809e-11 0 5.62962e-10 
9.86986e-11 1.02353e-11 0 0 4.06632e-11 6.29216e-10 6.21357e-11 6.54443e-12 0 
1.54234e-11 4.90771e-12 0 0 1.05237e-11 4.5045e-11 0 3.37487e-11 0 
1.54773e-12 4.35583e-11 8.84615e-12 0 7.43072e-12 0 3.36237e-11 0 1.13552e-11 
0 5.20199e-11 1.75068e-11 0 0 0 1.45124e-11 9.10479e-12 3.10655e-11 
7.15859e-07 1.94168e-11 0 1.78716e-10 0 0 0 0 0 
0 0 5.01635e-09 6.45518e-07 0 0 0 2.97907e-09 6.96874e-07 
3.53895e-11 0 1.69636e-09 0 1.89847e-12 0 0 1.02052e-09 8.56052e-12 
0 1.98541e-11 0 3.22665e-11 0 1.11722e-09 0 0 0 
0 2.33577e-11 6.79954e-11 1.68767e-11 4.73403e-10 1.50551e-10 2.98489e-10 6.81146e-11 0 
0 0 1.60042e-09 0 3.7913e-10 3.29715e-11 0 4.74848e-11 0 
0 2.04883e-10 2.612e-09 0 0 0 4.76406e-11 0 0 
6.30114e-12 0 0 4.11895e-09 0 0 0 0 4.30191e-11 
1.34421e-10 0 0 0 0 1.26499e-11 0 2.63759e-11 0 
0 0 0 0 0 0 1.01652e-10 5.6026e-11 0 
0 0 0 6.57585e-07 4.63387e-11 1.8306e-11 0 0 7.72299e-07 
0 3.68442e-11 0 3.05067e-11 0 1.79939e-10 0 0 0 
0 0 0 1.05463e-09 3.31451e-11 3.97227e-11 0 1.92149e-12 0 
2.20085e-11 0 7.03467e-07 0 0 4.29828e-09 0 4.97009e-11 0 
1.92176e-12 1.26423e-09 0 2.38635e-10 3.91865e-11 7.57676e-10 1.53161e-11 3.11935e-11 8.51341e-12 
1.14828e-09 4.94091e-12 0 9.08626e-10 0 0 0 0 0 
2.94728e-12 0 0 1.38644e-11 9.63542e-11 4.76767e-13 0 1.64007e-11 4.4451e-12 
4.86574e-11 0 1.73916e-11 0 0 6.54107e-07 0 3.64766e-11 0 
0 0 0 0 0 1.18224e-09 3.06952e-11 8.55699e-10 5.7214e-11 
2.58908e-10 0 3.5277e-11 4.71176e-12 4.19677e-11 1.16602e-11 9.63378e-12 0 7.77425e-13 
0 0 1.95756e-11 0 0 0 4.92603e-11 4.16891e-12 0 
0 0 0 0 2.11713e-11 1.93608e-10 0 0 0 
0 0 4.9314e-09 0 1.08549e-10 3.09496e-12 0 0 0 
3.71822e-12 9.38303e-12 0 6.42728e-12 0 0 3.51255e-11 4.43246e-12 0 
0 0 0 0 0 7.22093e-12 2.32913e-09 8.08684e-09 0 
0 8.19002e-09 7.01859e-07 2.76331e-11 0 2.19631e-10 0 1.53458e-11 2.81444e-11 
3.92412e-10 0 0 0 0 3.05538e-09 3.91928e-09 0 0 
6.25354e-11 0 0 0 0 0 0 0 0 
0 0 2.31426e-09 4.30564e-11 0 0 0 1.37593e-11 0 
8.98151e-11 1.59428e-11 0 3.38221e-10 0 6.70888e-07 4.17217e-11 2.67301e-11 3.05366e-11 
5.59741e-10 0 9.159e-12 3.63435e-11 0 0 0 0 0 
7.73146e-12 1.73297e-11 8.34794e-12 2.67705e-11 1.11098e-11 1.55705e-11 1.62557e-11 0 0 
5.79246e-11 0 2.10745e-11 6.98393e-10 4.56719e-10 3.19584e-11 1.23715e-09 1.76662e-09 7.08382e-07 
8.22371e-09 0 7.40122e-07 3.996e-09 0 0 0 2.53291e-11 1.14964e-11 
0 0 3.86813e-11 0 0 0 0 1.14497e-09 4.4767e-12 
2.16599e-11 0 1.06248e-09 1.66111e-11 4.41308e-12 0 0 1.32308e-11 2.7662e-11 
0 5.57746e-12 0 1.07686e-08 0 3.22099e-11 0 0 9.3206e-14 
1.41795e-10 1.09882e-11 2.03624e-11 8.9214e-12 9.72084e-10 0 6.57241e-07 4.30344e-09 3.20501e-09 
0 0 0 4.00976e-10 1.00122e-10 0 6.48701e-07 2.59128e-09 0 
0 0 8.52016e-09 3.33351e-09 2.56235e-09 0 9.91343e-12 0 0 
1.20491e-11 0 9.93778e-10 1.00485e-11 0 2.98368e-11 0 4.10508e-10 1.9737e-11 
0 0 0 1.88547e-11 0 1.80391e-11 1.51285e-11 8.94984e-12 4.70919e-12 
0 2.33469e-11 0 6.57909e-12 0 0 3.07201e-11 0 0 
0 1.31252e-11 0 0 1.13303e-10 2.99487e-10 0 0 3.74503e-11 
7.14752e-10 0 3.36246e-11 1.07262e-11 6.93256e-10 0 0 1.30508e-09 3.18565e-09 
5.93193e-12 0 4.26392e-13 2.52687e-09 3.43712e-11 0 3.03445e-10 1.12898e-11 0 
2.16697e-10 2.24682e-11 0 5.75641e-11 0 5.04208e-11 0 0 2.88859e-11 
6.99373e-07 0 0 7.21122e-07 3.42563e-09 0 0 0 0 
1.1673e-10 4.52463e-12 0 1.48026e-10 0 0 0 3.03734e-09 0 
6.60387e-12 4.98899e-12 0 0 1.56096e-09 0 5.88328e-09 0 0 
0 2.89551e-11 0 6.48931e-07 0 2.19219e-11 1.39804e-09 1.20869e-09 0 
2.80017e-11 5.50712e-11 5.66913e-11 0 1.95162e-09 3.53387e-11 0 0 6.33125e-11 
2.63096e-11 0 0 0 2.09196e-11 0 2.07939e-11 1.66921e-11 0 
1.91685e-11 3.11036e-11 1.97528e-11 1.47311e-11 0 0 0 0 0 
0 0 0 1.0069e-10 1.92646e-11 0 0 2.04456e-11 2.15539e-10 
0 1.43002e-10 0 1.70221e-09 1.51106e-09 0 2.71298e-09 3.1449e-09 0 
3.66006e-11 8.68618e-07 0 0 2.68584e-11 0 2.93462e-10 2.19101e-11 1.44586e-10 
3.86634e-12 0 0 1.34835e-11 0 0 0 7.18525e-07 4.1904e-12 
6.14652e-09 0 7.47867e-12 3.01491e-11 1.34466e-11 0 1.67218e-10 5.43341e-10 0 
1.77379e-11 0 7.79146e-11 1.04873e-09 2.27027e-09 0 1.72268e-09 0 0 
0 2.82311e-11 0 1.81252e-11 0 0 0 0 2.72347e-11 
0 1.26299e-11 4.41478e-11 1.56805e-10 2.32166e-11 0 0 8.101e-10 1.68764e-11 
3.28692e-10 3.32765e-11 0 0 0 2.91079e-11 0 6.73985e-07 0 
0 0 0 1.34744e-10 0 2.34444e-11 0 4.76614e-13 0 
4.18561e-11 1.42315e-11 0 2.46618e-11 7.34252e-12 0 9.07986e-11 0 0 
7.49942e-12 0 9.11468e-12 4.23381e-11 6.29954e-12 0 0 0 0 
9.29637e-12 0 1.57647e-09 0 1.35841e-09 0 3.02577e-10 0 7.42586e-12 
4.24041e-09 0 8.81905e-07 4.53896e-11 1.77022e-11 0 6.51439e-10 3.41012e-11 0 
6.73271e-12 0 3.98245e-11 8.22879e-11 0 2.91345e-09 6.51807e-11 0 0 
0 0 0 0 4.8176e-11 0 0 7.73017e-10 0 
0 0 0 0 0 1.43962e-09 0 5.28054e-07 5.94938e-10 
2.78796e-11 4.59337e-09 4.53652e-11 1.53832e-11 0 0 2.0459e-09 3.69547e-09 3.26093e-11 
0 0 0 2.51691e-09 0 6.10887e-12 1.42152e-10 0 7.80543e-11 
0 0 1.89163e-11 0 0 1.9326e-10 1.55269e-09 2.32757e-12 5.67416e-10 
0 0 0 4.58886e-10 0 0 4.61573e-11 2.95812e-11 0 
0 4.43836e-11 1.77859e-11 0 0 0 4.73534e-11 0 4.54537e-11 
0 0 0 9.91525e-12 0 4.16524e-11 0 1.30933e-11 0 
3.29336e-10 1.13105e-11 5.06665e-11 0 0 0 4.83014e-10 0 0 
4.1869e-11 0 0 0 6.16701e-12 8.30078e-09 6.82202e-07 3.55796e-09 0 
0 5.70808e-10 0 2.42477e-12 0 1.48389e-11 3.16417e-10 5.68444e-11 3.60309e-11 
0 0 1.45965e-11 0 0 1.20444e-11 0 0 0 
3.82491e-10 3.6885e-11 2.47376e-11 0 2.65002e-10 2.80702e-11 2.76112e-11 0 4.83011e-09 
0 0 0 2.19169e-11 7.45442e-07 2.87465e-11 8.01187e-07 0 0 
3.26645e-11 0 7.49294e-12 0 3.15751e-11 2.61773e-10 0 0 2.43797e-11 
0 3.49197e-12 9.92211e-12 7.01685e-11 0 0 6.54437e-07 2.5426e-11 3.36416e-11 
0 0 0 6.87157e-12 2.53927e-11 0 6.14369e-12 0 0 
0 0 0 7.68519e-12 0 0 0 7.59707e-12 1.98223e-11 
2.12395e-11 7.21771e-12 2.20511e-11 6.5295e-12 1.33021e-12 0 0 4.17027e-11 8.83325e-12 
0 3.50135e-11 0 0 0 0 1.87191e-11 1.04185e-10 1.06814e-12 
2.89634e-09 1.89022e-09 0 3.46894e-12 5.69831e-10 5.12252e-09 0 0 0 
0 1.71229e-09 0 1.06322e-11 0 0 0 2.06489e-11 0 
8.95611e-07 9.09868e-07 5.27583e-11 3.44397e-09 6.68792e-10 0 0 5.51656e-10 0 
1.06081e-10 0 0 0 0 2.18499e-11 1.09353e-10 0 0 
4.68497e-10 0 1.71415e-09 1.584e-10 0 1.00531e-11 0 4.37002e-09 0 
1.77572e-09 4.36637e-11 1.37125e-11 0 6.21524e-11 1.61248e-09 5.11563e-11 5.00171e-11 6.63119e-12 
6.44222e-11 0 5.35739e-11 5.93829e-11 0 0 2.24093e-09 0 1.58467e-11 
0 3.32996e-09 6.82555e-11 8.598e-10 0 0 0 0 6.76282e-12 
4.75577e-11 3.04333e-11 0 0 0 0 0 2.59955e-11 0 
0 0 0 0 0 2.33692e-11 0 0 3.96495e-11 
7.9929e-11 0 0 0 0 0 0 0 0 
1.80844e-10 0 0 2.63196e-09 5.33338e-12 0 1.26147e-11 7.47757e-12 0 
0 5.8596e-10 1.86458e-10 0 5.59036e-10 1.43262e-11 0 0 3.40482e-09 
0 0 0 1.5513e-11 2.25459e-11 1.07496e-09 2.0996e-11 1.76442e-12 0 
3.11367e-11 2.36022e-11 1.72585e-09 0 3.58927e-09 9.9425e-12 0 1.84022e-11 8.47833e-12 
8.52403e-12 0 1.79042e-10 0 0 1.74246e-11 3.29797e-10 0 0 
8.72955e-07 0 0 7.32576e-07 1.75996e-12 0 2.48861e-11 0 0 
0 0 2.6612e-12 2.38901e-11 2.325e-12 6.07222e-11 0 6.58569e-12 5.79246e-11 
0 6.00157e-11 0 1.07603e-11 0 6.52864e-11 0 0 0 
3.94297e-11 0 0 0 3.07812e-11 2.02266e-11 0 0 0 
0 7.93339e-12 1.28534e-11 0 0 5.11929e-12 3.72928e-11 3.55001e-11 0 
1.56888e-10 0 1.31612e-11 3.17505e-10 0 0 0 0 0 
0 1.44085e-10 0 0 7.11865e-07 0 0 3.37696e-11 0 
4.23031e-09 0 0 1.95485e-09 4.23347e-12 7.86448e-10 0 0 1.04331e-09 
2.45407e-11 5.94702e-13 0 1.37557e-11 5.03303e-10 0 0 4.19149e-11 1.9797e-11 
0 7.58811e-07 0 7.01942e-11 3.06817e-11 6.57086e-07 0 0 0 
1.34604e-12 6.06878e-10 0 0 2.32733e-11 0 1.13295e-11 7.64119e-12 0 
8.27904e-07 0 0 1.37105e-11 2.75559e-09 0 2.02315e-10 0 6.41394e-10 
2.7967e-11 0 5.1206e-11 0 0 8.83904e-11 9.01805e-12 6.54334e-11 1.86484e-10 
7.31687e-12 0 3.20699e-11 0 4.31686e-10 0 1.28361e-11 0 2.06991e-11 
0 2.16637e-11 0 1.01513e-11 0 0 0 9.05125e-12 0 
5.73141e-11 1.00129e-11 0 7.35968e-12 0 0 0 1.39598e-11 0 
0 1.96378e-10 8.465e-12 0 4.66062e-11 2.34495e-10 2.81227e-11 1.49893e-11 0 
0 0 9.55627e-10 3.36288e-10 0 1.3992e-12 4.20705e-11 7.7562e-07 0 
0 0 0 6.52177e-07 3.8024e-11 1.08665e-11 1.48748e-09 0 0 
0 0 0 3.04826e-11 7.09205e-07 0 7.23304e-10 6.35159e-11 2.12479e-11 
0 6.1433e-11 1.01427e-08 0 2.07269e-10 0 0 0 1.36215e-09 
0 0 0 5.31059e-11 1.30977e-11 0 0 7.69107e-11 9.76002e-12 
4.616e-11 0 9.68823e-10 3.62055e-11 7.45054e-07 5.50774e-09 0 3.93849e-11 2.66213e-11 
1.33252e-11 1.0694e-10 5.22991e-11 0 1.07026e-11 0 0 7.34431e-11 0 
0 0 0 0 6.05936e-12 0 0 0 1.39926e-11 
0 4.42685e-11 2.93007e-11 1.02794e-11 2.46273e-11 0 1.33911e-11 0 1.24419e-11 
2.21593e-11 1.42403e-11 0 0 1.31164e-11 3.98986e-11 4.04506e-11 0 1.26643e-11 
9.70419e-11 3.01932e-11 0 0 0 0 8.93216e-10 3.51918e-11 1.02394e-11 
3.42728e-11 0 0 1.77112e-11 2.86594e-10 1.87247e-10 9.68581e-12 0 5.13349e-09 
3.55144e-09 0 5.82288e-11 4.87406e-09 0 4.41389e-11 1.82174e-09 2.52722e-12 1.14066e-11 
0 3.0333e-11 4.21187e-10 7.24375e-11 0 0 0 9.43806e-10 0 
0 8.7655e-07 4.89623e-11 8.1744e-07 2.92353e-09 5.81656e-09 3.05215e-11 4.55812e-10 1.80772e-09 
0 0 0 0 0 2.58896e-12 0 0 4.59667e-11 
0 4.32599e-12 0 2.24412e-11 0 1.44376e-11 5.71514e-12 6.76959e-11 1.84552e-11 
0 0 0 1.2328e-11 3.33446e-11 0 7.29159e-11 0 0 
0 4.44592e-11 0 3.96571e-11 0 0 2.59417e-10 0 0 
2.20271e-11 0 5.47048e-11 0 3.29209e-11 4.2701e-11 0 5.27252e-11 1.28244e-11 
0 1.37667e-11 3.0859e-11 2.92581e-11 0 0 0 0 0 
0 0 0 0 0 2.15613e-11 6.82772e-10 2.70867e-12 2.44963e-12 
0 3.26428e-10 0 2.68268e-10 0 6.11273e-10 0 0 9.46886e-09 
7.29928e-07 4.88501e-12 0 1.44836e-09 8.27667e-12 0 0 0 2.7178e-10 
2.55531e-11 3.29668e-11 0 0 5.78528e-10 2.145e-11 1.03107e-11 1.07539e-08 0 
0 8.55184e-07 0 3.89397e-11 0 3.91624e-11 0 0 0 
0 0 0 0 9.21623e-10 6.65235e-07 0 4.82362e-09 3.65628e-11 
0 0 0 0 0 0 3.52377e-11 5.69564e-10 4.9224e-13 
7.13937e-11 5.27592e-10 2.34934e-11 0 1.92129e-11 3.0195e-11 0 1.58075e-11 7.02384e-12 
0 0 8.47523e-10 8.67353e-11 0 0 2.00904e-11 0 0 
2.18448e-10 4.10506e-11 0 0 0 0 0 3.89824e-11 0 
3.884e-11 0 0 0 4.43303e-12 1.00584e-11 1.49026e-11 7.44146e-11 0 
0 3.51143e-11 1.02906e-11 0 2.52909e-11 1.73159e-11 2.4898e-11 6.42457e-07 2.44989e-11 
0 0 2.14385e-11 3.96376e-11 0 0 3.53285e-12 0 8.22047e-12 
0 5.6105e-11 0 1.98284e-10 1.86655e-09 1.63767e-09 9.43546e-10 1.76144e-09 0 
0 5.59839e-10 3.30909e-11 0 5.48974e-12 0 7.03886e-11 6.12926e-11 1.48343e-11 
7.51597e-07 0 0 0 2.07112e-11 1.27993e-09 0 1.67542e-11 0 
1.27193e-10 3.91597e-11 0 1.55608e-09 1.77997e-11 5.38022e-12 0 1.24164e-11 0 
0 7.85015e-12 0 1.8645e-11 0 0 2.25826e-09 0 0 
1.2198e-09 3.40448e-10 0 2.0836e-11 1.82935e-11 3.22518e-11 0 0 4.83619e-11 
0 0 7.02451e-12 0 1.87229e-12 0 0 0 0 
0 0 3.12097e-10 0 0 1.59297e-11 1.38178e-11 1.01811e-11 3.23172e-11 
0 2.56006e-11 2.64941e-11 0 0 0 0 1.74724e-11 4.44701e-11 
0 0 8.73745e-11 0 3.15968e-10 0 0 0 0 
1.82666e-10 0 1.0561e-10 0 2.90596e-12 0 0 5.87805e-10 0 
0 0 1.4378e-10 3.5588e-12 4.69922e-11 0 5.08906e-11 1.38914e-11 1.89688e-11 
1.95649e-11 0 0 0 6.81497e-10 0 0 3.95692e-09 0 
0 0 3.65504e-13 0 0 0 0 0 6.1481e-11 
3.73536e-10 1.10674e-11 0 1.50625e-10 0 2.62557e-12 8.82636e-12 0 0 
0 6.12456e-12 1.94313e-11 8.42354e-07 0 8.38279e-07 8.9171e-09 0 0 
3.20132e-11 0 0 0 0 0 0 2.05358e-11 0 
6.13567e-10 0 5.52781e-12 0 2.97347e-09 5.74246e-11 0 9.25145e-12 0 
2.85358e-09 0 0 7.91033e-12 0 0 0 7.31154e-13 1.98737e-11 
1.41895e-11 5.17441e-13 0 3.21466e-11 2.00384e-11 0 0 0 2.55449e-11 
0 2.96357e-11 0 5.2673e-11 1.4398e-11 0 0 2.63295e-10 2.22026e-10 
0 8.9588e-12 0 1.92294e-12 0 0 0 0 3.2354e-11 
0 3.22996e-12 0 0 0 0 7.8695e-12 0 1.64794e-10 
4.37228e-12 1.92962e-11 0 4.58575e-11 0 5.82094e-11 6.92888e-10 0 2.87337e-11 
1.62398e-09 1.37915e-11 0 2.09659e-11 1.84199e-11 0 0 1.68657e-11 0 
0 4.67184e-11 1.62467e-11 2.80726e-11 0 0 2.82042e-11 2.50048e-11 1.81709e-11 
6.73509e-07 3.27941e-09 0 0 0 8.76935e-07 2.77325e-11 0 0 
9.67332e-10 0 0 1.70967e-11 0 0 4.11221e-11 3.02567e-11 0 
4.72433e-10 1.85578e-11 2.53186e-11 1.4324e-10 0 0 2.2736e-11 2.01856e-11 7.14159e-07 
1.94421e-09 0 4.95536e-11 6.03899e-10 2.18965e-11 0 0 0 3.66807e-11 
0 2.53366e-11 5.02224e-11 0 0 3.44516e-11 0 9.52218e-12 0 
0 0 2.10602e-12 0 1.23597e-11 0 7.023e-12 0 3.48922e-10 
7.38243e-12 3.45919e-11 0 0 5.67225e-11 3.15269e-11 0 6.42752e-07 2.57233e-11 
0 2.21405e-11 2.24625e-11 0 0 0 0 0 0 
0 0 0 4.51648e-11 6.47022e-07 1.33164e-11 6.70438e-11 0 4.36229e-11 