# vtk DataFile Version 5.1
vtk output
ASCII
DATASET STRUCTURED_POINTS
DIMENSIONS 100 100 1
SPACING 1 1 1
ORIGIN 0 0 0
POINT_DATA 10000
FIELD FieldData 6
feature_1 1 10000 float
0 0 0 0 0 0 0 0 0 
0 0 0 0 0 0 0 0 0 
0 0 0 0 0 0 0 0 0 
0 0 0 0 0 0 0 0 0 
0 0 0 0 0 0 0 0 0 
0 0 0 0 0 0 0 0 0 
0 0 0 0 0 0 0 0 0 
0 0 0 0 0 0 0 0 0 
0 0 0 0 0 0 0 0 0 
0 0 0 0 0 0 0 0 0 
0 0 0 0 0 0 0 0 0 
0 0 0 0 0 0 0 0 0 
0 0 0 0 0 0 0 0 0 
0 0 0 0 0 0 0 0 0 
0 0 0 0 0 0 0 0 0 
0 0 0 0 0 0 0 0 0 
0 0 0 0 0 0 0 0 0 
0 0 0 0 0 0 0 0 0 
0 0 0 0 0 0 0 0 0 
0 0 0 0 0 0 0 0 0 
0 0 0 0 0 0 0 0 0 
0 0 0 0 0 0 0 0 0 
0 0 0 0 0 0 0 0 0 
0 0 0 0 0 0 0 0 0 
0 0 0 0 0 0 0 0 0 
0 0 0 0 0 0 0 0 0 
0 0 0 0 0 0 0 0 0 
0 0 0 0 0 0 0 0 0 
0 0 0 0 0 0 0 0 0 
0 0 0 0 0 0 0 0 0 
0 0 0 0 0 0 0 0 0 
0 0 0 0 0 0 0 0 0 
0 0 0 0 0 0 0 0 0 
0 0 0 0 0 0 0 0 0 
0 0 0 0 0 0 0 0 0 
0 0 0 0 0 0 0 0 0 
0 0 0 0 0 0 0 0 0 
0 0 0 0 0 0 0 0 0 
0 0 0 0 0 0 0 0 0 
0 0 0 0 0 0 0 0 0 
0 0 0 0 0 0 0 0 0 
0 0 0 0 0 0 0 0 0 
0 0 0 0 0 0 0 0 0 
0 0 0 0 0 0 0 0 0 
0 0 0 0 0 0 0 0 0 
0 0 0 0 0 0 0 0 0 
0 0 0 0 0 0 0 0 0 
0 0 0 0 0 0 0 0 0 
0 0 0 0 0 0 0 0 0 
0 0 0 0 0 0 0 0 0 
0 0 0 0 0 0 0 0 0 
0 0 0 0 0 0 0 0 0 
0 0 0 0 0 0 0 0 0 
0 0 0 0 0 0 0 0 0 
0 0 0 0 0 0 0 0 0 
0 0 0 0 0 0 0 0 0 
0 0 0 0 0 0 0 0 0 
0 0 0 0 0 0 0 0 0 
0 0 0 0 0 0 0 0 0 
0 0 0 0 0 0 0 0 0 
0 0 0 0 0 0 0 0 0 
0 0 0 0 0 0 0 0 0 
0 0 0 0 0 0 0 0 0 
0 0 0 0 0 0 0 0 0 
0 0 0 0 0 0 0 0 0 
0 0 0 0 0 0 0 0 0 
0 0 0 0 0 0 0 0 0 
0 0 0 0 0 0 0 0 0 
0 0 0 0 0 0 0 0 0 
0 0 0 0 0 0 0 0 0 
0 0 0 0 0 0 0 0 0 
0 0 0 0 0 0 0 0 0 
0 0 0 0 0 0 0 0 0 
0 0 0 0 0 0 0 0 0 
0 0 0 0 0 0 0 0 0 
0 0 0 0 0 0 0 0 0 
0 0 0 0 0 0 0 0 0 
0 0 0 0 0 0 0 0 0 
0 0 0 0 0 0 0 0 0 
0 0 0 0 0 0 0 0 0 
0 0 0 0 0 0 0 0 0 
0 0 0 0 0 0 0 0 0 
0 0 0 0 0 0 0 0 0 
0 0 0 0 0 0 0 0 0 
0 0 0 0 0 0 0 0 0 
0 0 0 0 0 0 0 0 0 
0 0 0 0 0 0 0 0 0 
0 0 0 0 0 0 0 0 0 
0 0 0 0 0 0 0 0 0 
0 0 0 0 0 0 0 0 0 
0 0 0 0 0 0 0 0 0 
0 0 0 0 0 0 0 0 0 
0 0 0 0 0 0 0 0 0 
0 0 0 0 0 0 0 0 0 
0 0 0 0 0 0 0 0 0 
0 0 0 0 0 0 0 0 0 
0 0 0 0 0 0 0 0 0 
0 0 0 0 0 0 0 0 0 
0 0 0 0 0 0 0 0 0 
0 0 0 0 0 0 0 0 0 
0 0 0 0 0 0 0 0 0 
0 0 0 0 0 0 0 0 0 
0 0 0 0 0 0 0 0 0 
0 4.10855e-11 0 0 0 0 0 0 0 
0 0 0 0 0 0 0 6.53871e-10 0 
0 0 0 0 0 0 0 0 0 
0 0 0 0 0 0 0 0 0 
0 0 0 0 0 0 0 0 0 
0 0 0 0 0 0 0 0 0 
0 0 0 0 0 0 0 0 0 
0 0 0 0 0 0 0 0 0 
0 0 0 0 0 0 0 0 0 
0 0 0 0 0 0 0 0 0 
0 0 0 0 0 0 0 0 0 
0 0 0 0 0 0 0 0 0 
0 0 0 0 0 0 0 0 0 
0 1.73593e-09 0 0 0 0 0 0 0 
0 0 0 0 0 0 0 2.35727e-09 0 
0 0 0 0 0 0 0 0 0 
0 0 0 0 0 5.22976e-10 0 0 0 
0 0 0 0 0 0 0 0 0 
0 0 0 0 0 0 0 0 0 
0 0 0 0 0 0 0 0 0 
0 0 0 0 0 0 0 0 0 
0 0 0 0 0 0 0 0 0 
0 0 0 0 0 0 0 0 0 
0 0 0 0 0 0 0 0 1.6697e-09 
0 0 0 0 0 0 0 0 0 
0 0 0 0 0 0 0 0 0 
0 0 0 0 0 0 0 0 0 
0 0 0 0 4.38923e-10 0 0 0 0 
0 0 0 0 0 0 0 0 0 
0 0 0 0 0 0 0 0 0 
0 0 0 0 0 0 0 0 0 
0 0 0 0 0 0 0 0 0 
0 0 0 0 0 0 0 0 0 
0 0 0 0 0 0 0 0 0 
0 0 0 0 0 0 0 0 0 
0 0 0 7.84775e-07 6.74134e-09 2.16714e-09 0 0 0 
0 0 0 0 0 0 0 1.31917e-09 6.4052e-07 
1.38307e-09 0 0 0 0 0 0 0 0 
0 0 0 0 0 0 0 5.2943e-10 0 
0 0 0 0 0 0 0 0 0 
0 0 0 0 0 0 0 0 0 
0 0 0 0 0 0 0 0 0 
0 0 0 0 0 0 0 0 0 
0 0 0 0 0 0 0 0 0 
0 0 0 0 0 0 5.43413e-10 0 0 
0 0 0 1.364e-09 1.45055e-10 0 0 0 0 
3.18292e-09 0 0 8.248e-07 0 6.50616e-09 0 0 0 
8.14517e-10 0 0 0 0 6.22547e-10 0 0 0 
0 0 1.87361e-09 1.15459e-09 0 0 0 0 0 
0 0 0 0 0 0 0 0 0 
0 1.52472e-09 0 0 0 0 0 0 0 
0 0 0 0 0 0 0 0 0 
0 0 0 0 0 0 0 0 0 
0 0 0 0 0 0 0 0 0 
0 0 0 0 0 0 0 0 0 
0 0 0 0 4.43757e-09 6.42456e-07 0 1.53446e-09 0 
0 0 0 1.47461e-09 0 8.11524e-09 0 0 1.18163e-09 
0 0 0 0 0 0 0 0 0 
0 0 0 0 0 0 0 0 6.35564e-10 
0 0 0 0 0 0 0 0 0 
0 0 0 0 0 0 1.52577e-09 0 0 
6.41952e-07 1.43837e-09 0 0 0 0 0 0 0 
0 0 0 0 0 0 0 0 0 
0 0 0 0 0 0 0 0 0 
0 0 0 0 0 0 0 0 0 
0 0 0 0 0 0 0 0 0 
0 0 0 0 0 0 0 0 0 
8.66276e-10 0 0 0 0 3.89564e-09 6.42161e-07 4.81995e-09 2.74231e-09 
0 0 0 0 0 0 7.89045e-07 0 0 
6.75843e-10 0 0 0 0 0 0 0 0 
0 0 1.29413e-09 0 0 0 0 0 0 
0 0 0 0 9.66698e-10 0 0 0 0 
0 3.90805e-10 0 0 0 0 0 0 0 
0 0 0 0 0 0 0 0 0 
0 0 0 0 0 0 0 0 0 
0 0 0 0 0 0 0 0 0 
0 0 0 0 0 0 0 0 0 
0 0 0 0 0 0 1.81314e-09 0 0 
0 0 0 0 0 0 2.34457e-09 0 0 
0 0 0 0 0 7.34161e-07 1.24273e-08 0 0 
0 0 6.83622e-07 0 0 1.15973e-09 0 0 0 
0 0 0 0 1.51365e-09 0 1.75614e-09 0 1.99122e-09 
0 0 0 7.84964e-10 0 0 0 0 0 
0 0 0 0 0 0 0 0 0 
8.50952e-11 0 0 0 0 0 0 0 0 
0 0 0 0 0 0 0 0 0 
0 0 0 0 0 0 0 0 0 
0 0 0 0 0 0 0 0 0 
0 0 0 0 0 6.19929e-10 0 5.26625e-09 0 
1.62136e-09 0 0 3.95575e-10 0 0 0 0 2.37387e-09 
0 0 0 0 0 0 0 0 0 
0 0 0 0 0 0 1.18035e-09 3.44248e-10 3.10162e-10 
0 0 0 0 0 0 0 7.13289e-07 0 
7.13076e-07 8.47978e-09 0 0 0 0 0 0 6.61867e-07 
0 0 0 0 0 0 0 0 0 
0 0 0 0 0 0 0 0 0 
0 0 0 0 0 0 0 0 0 
0 0 0 0 0 0 0 0 0 
0 0 0 0 0 0 0 0 0 
0 0 0 0 0 3.75695e-09 0 1.36114e-09 0 
0 0 0 0 0 0 0 0 0 
0 1.40493e-09 0 4.67576e-09 5.55729e-09 0 0 0 0 
0 0 0 0 0 0 1.72778e-09 0 0 
0 0 0 0 0 1.33684e-09 0 0 0 
0 0 2.52696e-09 0 0 3.17385e-10 0 0 0 
0 0 1.99279e-09 2.38793e-09 1.65683e-09 0 0 0 0 
0 0 0 0 0 0 0 0 0 
0 0 0 0 0 0 0 0 0 
0 0 0 0 0 0 0 0 0 
0 0 0 0 0 0 0 0 0 
0 0 0 0 0 0 0 2.14677e-09 0 
4.01757e-09 6.45023e-07 8.07346e-10 0 0 0 0 0 0 
0 0 0 0 6.4599e-07 0 0 0 0 
0 8.89321e-07 9.05646e-07 0 2.26129e-09 7.12955e-07 0 0 0 
0 0 0 0 0 0 0 1.74456e-09 0 
0 1.73575e-09 8.64198e-10 0 0 1.2407e-09 0 0 0 
2.03986e-09 0 0 1.21038e-09 0 0 0 0 0 
0 0 0 0 0 0 0 7.88213e-10 0 
0 0 0 0 0 0 0 0 0 
0 0 0 0 0 0 0 0 0 
0 0 0 0 0 0 0 0 0 
0 0 0 7.67373e-10 2.21437e-09 4.51928e-09 6.42411e-07 5.49665e-09 0 
0 2.78036e-09 3.52495e-09 0 0 0 0 0 0 
0 0 0 0 0 0 0 0 1.72065e-09 
0 0 0 0 0 0 2.02522e-09 0 1.15592e-09 
0 0 0 0 0 0 0 0 0 
0 0 3.58922e-10 0 0 0 0 0 0 
0 0 9.91446e-10 0 0 0 0 0 0 
4.24195e-10 0 0 0 0 0 1.4275e-09 1.49092e-09 0 
0 0 0 0 0 0 0 0 0 
0 0 0 0 0 0 0 0 0 
0 0 0 0 0 0 0 0 0 
0 0 0 0 0 0 0 0 5.24265e-09 
2.17452e-09 0 1.17898e-09 0 0 6.65038e-10 0 0 0 
0 5.62195e-10 0 0 0 0 0 0 6.50582e-10 
1.90896e-09 0 0 0 0 0 0 3.58867e-09 0 
1.26952e-09 0 0 0 0 2.5281e-10 0 0 0 
0 0 0 0 0 1.38423e-09 0 0 0 
0 0 0 0 0 0 0 0 1.53191e-09 
0 4.92273e-10 0 0 0 0 0 1.27855e-09 0 
0 0 0 0 0 0 0 0 0 
0 0 0 0 0 0 0 0 0 
0 0 0 0 0 0 0 0 0 
0 0 0 0 1.46274e-09 0 0 0 0 
0 0 0 0 1.03353e-09 0 0 0 0 
0 0 0 0 0 0 9.45612e-10 8.9771e-10 0 
5.62416e-10 0 0 0 0 1.98542e-09 0 0 0 
0 3.89888e-10 1.48606e-09 0 0 0 0 0 0 
0 0 0 0 0 0 0 4.72544e-09 0 
1.898e-10 0 0 0 0 1.6646e-09 0 0 7.77615e-10 
0 0 0 0 0 0 0 0 0 
7.13085e-07 0 0 1.63882e-09 0 0 0 0 0 
0 0 0 0 0 0 0 0 0 
0 0 0 0 0 0 0 0 0 
0 0 0 0 0 1.67659e-10 0 0 0 
9.93605e-10 6.87706e-10 0 4.18713e-10 0 0 0 9.6676e-10 0 
0 0 0 4.30659e-10 0 0 7.70652e-10 0 0 
5.78809e-10 0 0 0 1.64142e-09 0 0 8.68582e-07 8.65888e-07 
0 0 0 0 0 0 0 0 0 
3.52556e-10 0 0 0 0 0 0 0 6.42558e-07 
0 0 0 4.10651e-10 0 0 0 0 0 
0 6.50403e-07 7.7916e-09 0 0 0 0 0 0 
5.6822e-09 1.79215e-09 0 0 0 0 0 0 0 
0 0 0 0 0 0 0 0 0 
0 0 0 0 0 0 0 0 0 
6.51915e-10 0 0 0 0 0 0 1.44563e-09 0 
0 6.27871e-10 0 0 0 0 0 0 0 
1.64252e-09 0 0 0 0 7.63333e-10 0 0 0 
0 0 0 0 0 0 0 1.56097e-10 3.37737e-09 
0 0 2.28586e-09 0 3.10696e-10 1.12934e-09 6.41205e-07 1.97195e-09 0 
1.17502e-09 0 0 0 0 0 0 2.77749e-09 0 
0 0 0 0 0 0 4.71994e-09 0 0 
0 0 1.61425e-09 0 3.56602e-09 0 0 0 0 
1.19683e-09 0 7.19667e-07 1.80751e-09 0 2.68981e-10 0 0 0 
0 0 0 0 0 0 0 0 0 
0 0 0 0 0 0 0 0 0 
0 1.05968e-09 0 1.26332e-09 1.39479e-09 0 0 1.16736e-09 0 
0 0 0 1.99735e-10 0 0 0 0 0 
0 0 2.86918e-09 0 1.19019e-09 0 1.17274e-09 0 0 
0 0 0 0 0 0 0 2.19801e-09 0 
4.40573e-09 7.63543e-11 0 0 2.35764e-09 0 7.0615e-10 2.62413e-09 0 
0 0 1.01119e-09 0 0 0 0 6.03071e-10 0 
5.72244e-10 0 1.95901e-09 0 0 0 9.61015e-09 6.49346e-07 5.17063e-09 
0 0 0 0 0 0 0 6.9086e-10 0 
0 0 4.11871e-09 0 0 0 0 0 0 
0 0 0 0 0 0 0 0 0 
0 0 0 0 0 0 0 0 0 
0 0 0 0 0 0 0 0 0 
7.12044e-07 0 0 0 0 0 0 0 0 
0 0 4.32256e-09 6.42818e-07 0 0 1.8857e-09 0 6.93422e-07 
0 2.6654e-09 1.47972e-09 0 0 0 0 1.16584e-09 0 
0 0 0 0 0 0 0 0 0 
0 0 0 0 0 0 0 0 0 
0 0 1.3792e-09 0 0 0 0 0 3.41604e-09 
0 0 2.93516e-09 0 0 0 0 0 0 
0 0 0 3.10185e-09 0 0 1.26103e-09 0 0 
0 0 0 0 0 0 0 0 0 
0 0 0 0 0 0 0 0 0 
0 0 0 6.54669e-07 0 0 0 0 7.67657e-07 
0 0 0 0 0 0 0 0 0 
0 0 1.14788e-09 1.37751e-09 0 0 0 0 0 
0 0 6.99904e-07 0 0 3.75202e-09 0 0 0 
0 1.33627e-09 3.21805e-09 0 0 7.19106e-10 0 0 0 
1.04203e-09 0 0 0 0 0 0 0 3.17892e-10 
0 1.10736e-09 0 0 0 0 0 0 0 
0 0 0 0 0 6.51221e-07 0 0 0 
0 4.01353e-10 0 0 1.01951e-09 0 0 0 0 
0 0 0 0 0 0 0 0 0 
0 0 0 0 0 0 0 0 0 
0 0 1.78883e-09 3.6741e-09 0 0 0 0 0 
0 0 3.89879e-09 2.28291e-09 0 0 8.21091e-10 0 0 
0 0 0 0 0 0 0 0 0 
1.9837e-09 0 0 0 0 0 2.7123e-09 5.98701e-09 0 
0 6.05012e-09 6.98286e-07 0 0 0 0 0 0 
4.53628e-10 0 0 0 0 2.8312e-09 4.26547e-09 0 0 
0 0 0 0 0 0 1.82358e-09 0 0 
0 0 2.34201e-09 0 0 0 0 0 0 
0 0 0 0 0 6.67631e-07 0 0 0 
3.47481e-10 0 0 0 0 0 0 0 0 
0 0 0 0 0 0 0 0 0 
0 0 0 6.79521e-10 5.10612e-10 0 0 0 7.04498e-07 
9.28394e-09 0 7.35876e-07 4.36557e-09 2.45516e-09 0 0 0 0 
0 9.74973e-10 0 0 0 0 0 8.83476e-10 0 
0 1.10919e-09 1.40158e-09 0 0 0 0 0 0 
0 0 0 7.75639e-09 0 0 0 0 0 
0 0 0 0 1.22224e-09 0 6.54187e-07 4.91354e-09 2.97731e-09 
0 0 0 0 0 0 6.45947e-07 2.14822e-09 1.85632e-09 
0 0 7.041e-09 3.64877e-09 2.56699e-09 0 0 0 4.72666e-10 
0 0 1.07622e-09 0 0 0 0 3.73627e-10 0 
0 0 0 0 0 0 0 0 0 
0 0 0 0 0 0 0 0 0 
0 0 0 0 0 0 2.51916e-09 2.64263e-09 0 
0 0 0 0 0 0 0 1.08082e-09 3.0176e-09 
0 0 0 0 0 0 0 0 0 
0 0 0 0 0 0 0 0 0 
6.9555e-07 0 0 7.17184e-07 4.73167e-09 0 0 0 0 
0 0 0 0 0 0 0 3.09129e-09 0 
0 0 0 1.87425e-09 1.52604e-09 0 4.709e-09 0 3.59585e-09 
0 0 4.64575e-09 6.4616e-07 0 0 1.26197e-09 0 1.09726e-09 
0 0 0 0 2.29562e-09 0 0 0 0 
0 0 0 0 0 0 0 0 0 
0 0 0 0 0 0 0 0 0 
0 0 0 0 0 0 0 0 0 
0 0 0 1.88403e-09 1.26555e-09 0 1.89507e-09 3.28421e-09 3.1214e-10 
0 8.63862e-07 0 0 0 0 0 0 0 
0 0 0 0 0 0 0 7.1449e-07 0 
5.92463e-09 0 0 0 0 0 0 0 0 
0 0 0 8.64998e-10 1.70071e-09 0 1.87378e-09 4.17668e-09 0 
2.35594e-09 0 0 0 0 0 0 3.78176e-10 0 
0 0 0 0 0 0 0 9.52758e-10 0 
3.92988e-10 0 0 0 2.99621e-09 0 0 6.70781e-07 0 
0 0 0 0 0 0 0 0 0 
0 0 0 0 0 0 0 0 0 
0 0 0 0 0 0 0 0 0 
0 0 1.3182e-09 0 1.54687e-09 0 0 0 0 
3.76686e-09 1.5288e-09 8.76924e-07 0 0 0 0 0 3.99472e-10 
0 0 0 0 0 2.96292e-09 0 6.21106e-09 0 
0 0 3.01493e-09 2.9661e-09 0 0 0 0 0 
0 0 0 0 0 1.34436e-09 0 5.3614e-07 0 
0 3.47812e-09 0 0 0 0 2.72163e-09 3.27176e-09 0 
0 0 1.04987e-09 2.2465e-09 4.05487e-10 0 0 0 0 
0 0 0 0 0 0 1.92691e-09 0 0 
0 0 0 0 0 0 0 0 0 
0 0 0 0 0 0 0 0 0 
0 0 0 0 0 0 0 0 0 
0 0 0 0 0 0 0 0 0 
0 0 0 0 0 0 6.78672e-07 4.26521e-09 0 
0 6.59799e-10 0 0 0 0 0 0 0 
0 0 0 0 0 0 0 0 0 
0 0 0 0 0 0 0 0 5.59678e-09 
0 0 0 0 7.41255e-07 0 7.96226e-07 0 0 
0 0 0 0 0 0 0 0 0 
0 0 0 0 0 3.65835e-09 6.51611e-07 0 0 
0 0 0 0 0 0 0 0 0 
0 0 0 0 0 0 0 0 0 
0 0 0 0 0 0 0 0 0 
0 0 0 0 0 0 0 0 0 
2.25089e-09 1.60625e-09 0 0 6.80869e-10 4.84487e-09 1.4345e-09 4.8188e-09 8.48338e-10 
0 1.74953e-09 0 0 0 0 0 0 0 
8.90433e-07 9.04461e-07 0 3.90313e-09 0 5.40517e-10 0 0 4.79023e-09 
0 0 0 0 0 0 0 0 0 
4.59002e-10 1.7096e-09 2.00682e-09 0 0 0 0 3.91523e-09 0 
1.54656e-09 0 0 0 0 1.07965e-09 0 0 0 
1.04155e-10 0 0 0 0 0 2.55806e-09 2.42916e-09 0 
2.39865e-09 2.8374e-09 0 0 0 0 0 0 0 
0 0 0 0 0 0 0 0 0 
0 0 0 0 0 0 0 0 0 
0 0 0 0 0 0 0 0 0 
0 0 0 2.37116e-09 0 0 0 0 0 
0 5.92925e-10 0 0 0 0 0 0 0 
0 0 0 0 0 0 0 0 3.74675e-09 
0 0 2.23767e-09 0 3.80129e-09 0 0 0 0 
0 2.71416e-09 0 0 0 0 0 0 3.63724e-09 
0 0 0 7.28365e-07 0 1.59527e-09 0 0 0 
0 0 0 0 0 0 0 0 0 
0 0 0 0 0 0 0 0 0 
0 0 0 0 0 0 0 0 0 
0 0 0 0 0 0 0 0 0 
0 0 0 0 0 0 0 0 0 
0 0 0 3.82399e-09 7.07967e-07 0 9.08433e-09 0 0 
4.2848e-09 3.64081e-09 0 2.41967e-09 0 0 0 0 1.13966e-09 
0 0 0 0 0 0 0 0 0 
0 7.54426e-07 0 0 0 6.54066e-07 0 0 0 
0 7.54478e-10 0 0 0 0 0 0 0 
8.22593e-07 0 0 0 2.84688e-09 0 0 0 4.41117e-10 
0 0 0 0 0 0 0 0 0 
0 0 0 2.16084e-10 0 0 0 0 0 
0 0 0 0 0 0 0 0 0 
0 0 0 0 0 0 0 0 0 
0 0 0 6.4071e-10 0 0 0 0 0 
0 0 0 0 0 0 0 7.71087e-07 4.55072e-09 
0 0 0 6.49271e-07 0 0 1.4816e-09 0 0 
0 1.64334e-09 0 0 7.05138e-07 0 0 0 0 
0 0 1.07483e-08 0 0 0 4.38415e-09 0 0 
0 0 0 0 0 0 7.8758e-10 0 0 
0 0 9.47378e-10 0 7.40562e-07 6.75257e-09 0 0 0 
0 0 0 0 0 0 0 0 0 
0 0 0 0 0 0 0 0 0 
0 0 0 0 0 0 0 0 0 
0 0 0 0 0 0 0 0 0 
0 0 0 0 0 0 1.12443e-09 0 0 
0 0 0 0 3.04359e-10 0 0 0 5.54834e-09 
0 0 0 3.65495e-09 4.82064e-09 0 1.34878e-09 0 0 
0 0 4.96905e-10 0 0 0 0 9.88407e-10 0 
0 8.70774e-07 0 8.12399e-07 2.57009e-09 4.26776e-09 0 3.85298e-10 1.97515e-09 
1.37698e-09 0 0 0 0 0 0 0 0 
0 0 2.6606e-09 0 0 0 0 0 0 
0 0 0 0 0 0 0 0 0 
0 0 0 0 0 0 0 0 0 
0 0 0 0 0 0 0 0 0 
0 0 0 0 0 0 0 0 0 
0 0 0 0 0 0 0 0 0 
5.26954e-10 0 0 2.70759e-10 0 0 2.10004e-09 2.20752e-09 1.05796e-08 
7.26074e-07 0 0 1.59346e-09 0 0 0 0 0 
0 0 0 0 4.74369e-10 0 0 9.35703e-09 0 
0 8.49474e-07 0 0 0 0 0 0 0 
0 0 0 0 0 6.62147e-07 0 3.59396e-09 0 
0 1.92767e-09 0 0 4.32336e-09 0 0 0 0 
0 4.26633e-10 0 0 0 0 0 0 0 
0 0 6.09351e-10 0 0 0 0 7.20933e-10 0 
0 0 0 0 0 0 0 0 0 
0 0 0 0 0 0 0 0 0 
0 0 0 0 0 0 0 6.39927e-07 0 
0 0 0 0 0 0 0 0 0 
0 0 0 0 1.89383e-09 1.19159e-09 0 0 3.91429e-10 
0 0 0 0 0 0 0 0 0 
7.4702e-07 0 0 0 0 0 0 0 0 
0 0 0 0 0 0 5.06088e-09 0 3.66539e-09 
0 0 0 0 0 0 2.68744e-09 0 1.63309e-09 
9.63422e-10 0 0 0 0 0 0 0 0 
0 0 0 0 0 0 0 0 0 
0 0 0 0 0 0 0 0 0 
0 0 0 0 0 0 0 0 0 
0 0 0 0 0 0 2.21229e-09 2.29799e-09 0 
0 0 0 0 0 4.96694e-10 0 5.89532e-10 0 
1.52782e-09 1.39129e-09 1.66586e-10 0 0 0 0 0 0 
0 0 0 0 0 9.25889e-10 0 2.95474e-09 0 
0 0 0 0 0 0 0 1.49739e-09 0 
0 0 0 0 0 0 0 0 0 
4.51364e-09 0 0 8.3729e-07 0 8.33231e-07 9.26292e-09 0 0 
0 0 0 0 0 0 0 0 0 
3.94196e-10 0 0 0 3.64739e-09 0 0 0 0 
2.05518e-09 0 0 0 0 0 0 0 0 
0 0 0 0 0 0 0 0 0 
0 0 0 0 0 0 0 0 0 
0 0 0 0 1.6215e-09 0 0 0 0 
0 0 0 0 0 0 0 0 0 
0 0 0 0 0 0 0 0 0 
1.92481e-09 0 4.75201e-09 0 0 4.52175e-09 0 0 0 
0 0 0 0 0 0 0 0 0 
6.7016e-07 2.72666e-09 0 0 0 8.71668e-07 0 3.79797e-09 2.86266e-09 
7.03426e-10 0 0 0 0 0 0 0 3.171e-10 
0 0 0 0 4.19302e-09 0 0 0 7.10408e-07 
0 0 0 3.91282e-10 0 0 0 0 0 
0 0 0 0 0 0 0 0 0 
0 0 0 0 0 0 0 0 0 
0 0 0 0 0 0 0 6.40065e-07 0 
0 0 0 0 0 0 0 3.65468e-10 0 
0 0 0 0 6.4436e-07 0 0 0 0 
0 0 0 0 8.98042e-07 8.84264e-07 0 0 0 
0 0 0 0 0 0 0 0 0 
2.96408e-09 9.34597e-09 0 0 0 1.73508e-09 0 0 1.73649e-09 
0 0 0 0 0 5.13913e-10 0 0 0 
1.4663e-09 0 0 0 0 5.60393e-09 6.93386e-07 0 0 
0 0 4.33167e-10 0 0 0 0 0 0 
0 0 0 0 0 0 0 0 0 
0 0 0 0 0 0 0 0 0 
0 0 0 0 0 0 0 1.29764e-09 1.88977e-09 
0 0 0 0 0 0 0 0 0 
0 0 0 0 0 0 0 2.27929e-09 0 
0 0 0 0 0 1.13099e-08 0 0 0 
0 0 0 0 0 0 0 0 8.95003e-10 
0 0 0 0 0 0 0 0 0 
0 0 3.16779e-10 0 0 0 0 0 0 
0 0 1.67852e-09 0 0 0 0 1.83621e-09 0 
4.97017e-09 0 7.04781e-07 0 0 0 0 0 0 
0 0 0 0 0 0 0 0 0 
0 0 0 0 0 0 0 0 0 
0 0 0 0 0 0 0 0 0 
0 0 0 0 0 0 0 0 0 
0 0 0 0 0 2.56806e-09 0 0 0 
0 0 0 0 7.27206e-10 0 0 9.48563e-10 3.32088e-09 
0 0 0 0 7.00189e-10 0 0 0 0 
0 0 0 0 0 0 1.73271e-09 0 2.97378e-09 
2.76186e-09 0 0 0 0 0 0 0 0 
0 0 0 0 0 0 6.81502e-07 1.01286e-09 1.53542e-09 
0 0 4.02725e-09 2.51842e-09 0 0 0 0 0 
0 0 0 0 0 0 0 0 0 
0 0 0 0 0 0 0 0 0 
0 0 0 0 0 0 0 0 0 
0 0 0 5.31315e-10 0 0 0 0 0 
0 0 0 0 0 0 0 1.85108e-09 0 
0 0 0 0 1.93327e-09 3.2522e-09 6.72e-07 0 0 
0 0 1.22085e-09 0 0 0 0 0 0 
0 0 0 0 0 0 0 0 0 
0 0 0 0 0 0 3.74972e-09 0 1.12245e-09 
1.21304e-09 0 0 6.49805e-07 0 1.71361e-09 0 0 0 
3.64595e-09 0 0 0 0 2.39312e-09 0 0 0 
0 0 0 0 0 0 0 0 0 
0 0 0 0 0 0 0 0 0 
0 0 0 0 0 1.85422e-09 0 0 0 
6.19314e-10 0 0 0 0 0 0 0 0 
0 0 0 0 0 0 6.4436e-07 0 0 
0 0 0 0 0 0 0 0 3.13982e-09 
0 0 0 0 0 0 0 0 0 
0 0 0 0 0 0 0 0 0 
0 0 1.40818e-09 0 0 2.28323e-09 5.72672e-09 6.45113e-07 0 
0 0 0 0 8.73264e-09 0 0 0 0 
0 1.54789e-09 0 0 0 0 0 0 0 
0 5.16822e-10 0 0 0 0 0 0 0 
0 0 0 0 0 0 0 0 0 
0 0 0 0 0 0 6.406e-07 4.27875e-09 1.6349e-09 
0 0 0 0 0 0 0 0 0 
0 0 0 0 0 1.1421e-09 2.1954e-09 0 0 
0 0 6.08299e-10 0 0 0 0 1.2429e-09 0 
2.51913e-09 0 0 8.12668e-10 0 0 1.4861e-09 6.71538e-07 0 
0 7.95084e-10 0 0 0 0 0 0 0 
0 0 0 0 0 0 0 2.69469e-09 0 
0 1.22139e-10 0 0 0 0 0 0 1.11582e-09 
0 0 0 4.04084e-09 0 0 0 6.55663e-07 0 
0 0 0 0 0 0 0 0 0 
0 0 0 0 0 0 0 0 0 
0 0 0 0 8.4573e-10 0 0 0 2.72214e-09 
0 0 0 0 0 0 0 0 0 
0 0 0 0 0 0 0 0 7.138e-10 
0 1.33011e-09 6.95033e-10 5.94501e-10 0 0 0 0 0 
0 0 0 0 6.8419e-10 0 2.34615e-09 0 0 
0 0 0 0 0 0 0 0 0 
0 1.57297e-10 0 0 0 6.44389e-07 4.50446e-09 4.40511e-09 0 
0 0 0 0 0 9.79519e-10 0 0 0 
3.71939e-09 0 6.52195e-07 3.09638e-09 0 1.87035e-09 0 1.58785e-09 0 
0 0 0 0 0 0 0 0 0 
0 0 0 0 0 0 0 0 0 
0 0 0 0 0 0 0 0 0 
1.75464e-09 0 0 0 0 0 0 0 0 
0 0 2.72241e-10 0 6.47994e-10 0 0 0 0 
1.32152e-09 0 9.15069e-10 0 0 0 0 0 0 
0 0 0 6.42163e-10 0 0 0 0 0 
0 0 0 9.76001e-07 9.04682e-07 0 0 4.83543e-10 0 
0 0 0 0 0 0 0 0 0 
1.08551e-09 0 0 1.52386e-10 0 0 6.33789e-10 0 0 
0 0 1.14422e-09 0 0 0 0 0 0 
0 0 0 0 0 0 0 0 0 
0 0 0 0 0 0 0 0 0 
0 0 0 0 0 0 0 0 2.46675e-09 
9.10886e-10 0 0 0 0 0 0 0 0 
0 0 0 0 0 0 0 0 0 
0 3.71036e-10 0 0 0 0 0 7.10674e-10 3.35732e-10 
6.27516e-10 0 1.19029e-10 0 0 0 0 0 0 
0 0 0 8.2206e-07 0 0 7.4225e-09 0 0 
0 0 0 0 0 0 0 0 0 
0 0 0 0 0 0 0 0 0 
3.01044e-09 0 1.7359e-09 0 0 0 1.28689e-09 0 0 
0 0 1.9637e-09 0 0 0 0 0 0 
0 0 0 0 0 0 0 0 0 
0 0 0 0 0 0 0 0 0 
0 0 0 0 0 0 0 0 0 
8.67945e-10 0 0 0 0 0 2.11847e-09 0 3.80023e-10 
0 0 0 3.04747e-10 0 0 4.23057e-09 6.42764e-07 0 
0 0 0 0 1.78244e-09 0 0 0 0 
6.6489e-07 0 3.85667e-09 0 0 0 0 0 0 
0 0 0 0 0 0 0 0 0 
0 0 5.50234e-10 5.67351e-10 0 0 0 0 5.15099e-09 
6.60985e-07 0 0 1.08215e-09 0 0 6.67118e-11 0 0 
2.05215e-09 6.52044e-07 0 0 0 0 0 0 0 
0 0 0 0 0 0 0 0 0 
0 0 0 0 0 0 0 0 0 
0 0 0 6.15775e-09 0 0 0 0 0 
0 0 0 0 0 6.23346e-09 6.72772e-07 0 0 
5.49185e-10 0 0 0 0 0 0 0 0 
2.60352e-09 0 0 2.12383e-11 0 0 2.91313e-10 1.74966e-09 0 
0 5.78244e-09 0 0 0 0 0 3.66637e-09 0 
0 8.21972e-10 0 0 0 0 0 0 0 
0 0 0 0 0 0 0 0 0 
0 0 0 2.71615e-09 0 0 0 0 2.00834e-09 
0 1.1102e-08 0 0 0 0 0 0 0 
0 0 0 0 0 0 0 0 0 
0 0 0 0 0 0 0 0 0 
0 0 0 6.40582e-07 0 0 0 0 0 
0 0 0 0 6.73647e-07 0 0 0 0 
0 0 0 0 0 0 0 3.69322e-09 0 
2.28357e-09 0 0 0 0 0 1.2222e-09 0 6.51866e-07 
4.55466e-09 3.38242e-09 0 0 0 0 0 1.79611e-09 0 
0 0 0 0 0 0 0 0 0 
0 0 0 0 0 0 0 0 2.14587e-09 
0 0 0 0 0 0 0 0 0 
0 0 2.50788e-09 0 0 0 0 0 0 
0 0 0 0 0 0 0 0 0 
0 0 0 0 0 0 0 0 0 
0 0 0 0 1.90095e-09 0 0 0 0 
0 0 0 7.88514e-10 0 0 1.29534e-09 0 0 
0 2.0608e-09 0 0 0 0 3.71958e-09 0 0 
2.36573e-09 0 9.24174e-10 0 0 0 0 0 0 
0 2.30308e-09 1.34867e-09 0 0 0 0 0 1.11213e-09 
0 0 1.70564e-09 6.63215e-07 5.21994e-09 0 0 0 0 
0 0 0 0 0 0 0 0 0 
0 0 0 0 0 1.48176e-09 0 2.16086e-09 0 
6.47793e-07 0 0 0 1.81682e-09 0 0 0 0 
0 0 0 0 0 0 0 0 0 
0 0 0 0 0 0 0 0 0 
0 0 0 7.38558e-10 0 7.55015e-10 0 0 1.02702e-09 
5.00267e-10 7.50346e-10 0 3.16149e-09 0 0 0 0 0 
2.28235e-09 2.47976e-09 7.31018e-07 3.6447e-09 0 3.43305e-09 0 6.57993e-07 2.54514e-09 
0 0 0 4.39943e-10 1.41792e-09 2.33098e-09 1.34972e-09 0 0 
0 2.21917e-09 0 5.07642e-10 0 0 0 0 0 
0 0 0 0 0 0 0 0 0 
0 0 0 0 0 0 0 0 4.30526e-10 
0 0 0 9.72832e-07 1.07375e-06 0 0 0 0 
0 0 0 0 4.62042e-10 0 0 0 0 
0 0 0 0 0 0 0 0 0 
0 0 0 0 0 0 0 0 0 
0 0 0 0 0 0 0 0 0 
0 0 0 0 0 7.01607e-07 2.22297e-09 0 1.93783e-09 
0 0 4.3508e-09 1.31424e-09 0 0 0 0 1.97555e-09 
2.44633e-09 0 0 0 0 6.66635e-07 1.79543e-09 1.3914e-09 1.64442e-09 
0 0 0 0 0 0 0 0 0 
0 0 0 0 0 0 3.90469e-09 0 0 
0 0 0 0 0 0 0 0 0 
0 0 0 0 0 9.76709e-07 0 0 4.12138e-09 
1.64629e-09 0 0 0 0 1.27406e-09 0 0 7.5927e-07 
0 0 1.51034e-09 4.38738e-10 0 0 0 0 0 
0 0 0 0 0 0 0 0 0 
0 0 0 0 0 0 0 0 0 
0 0 0 0 0 0 0 0 0 
0 2.45069e-09 0 0 7.36618e-07 0 2.0725e-09 0 2.98214e-09 
8.55635e-10 0 0 4.00015e-09 0 0 0 0 0 
2.46817e-09 0 0 4.44362e-10 0 7.80417e-10 0 8.16429e-10 0 
0 0 0 0 0 0 0 6.74742e-07 0 
0 2.02402e-09 0 0 0 0 0 0 0 
0 0 0 1.49591e-09 0 0 0 0 0 
0 3.94243e-09 0 0 0 0 0 0 0 
0 7.62908e-07 0 0 0 0 0 0 0 
0 0 0 0 0 0 0 0 0 
0 0 0 0 0 0 0 0 0 
1.2281e-10 0 5.66366e-10 0 0 6.53479e-09 6.90553e-07 3.31711e-09 0 
1.64344e-09 0 0 2.28408e-09 0 0 4.10069e-10 0 1.64575e-09 
0 0 4.00251e-09 6.5917e-07 1.12882e-09 1.15313e-09 0 0 0 
0 0 1.30835e-09 0 1.5776e-09 0 7.71492e-10 0 0 
0 0 2.40826e-09 7.56988e-07 8.30818e-09 0 7.5124e-10 0 0 
0 0 7.56021e-09 0 0 0 0 0 3.79244e-10 
0 4.81659e-10 1.3369e-09 0 0 0 9.72545e-10 4.46686e-09 8.67488e-10 
0 6.62603e-07 3.28516e-09 2.13342e-09 0 1.41771e-09 0 0 0 
0 0 0 3.03974e-09 0 0 0 0 0 
0 0 0 0 0 0 0 0 0 
0 0 0 0 0 0 0 0 0 
0 0 0 0 0 0 2.95955e-09 0 0 
0 0 0 7.50603e-10 0 0 5.05064e-10 0 3.09336e-09 
0 0 0 0 0 1.00027e-08 0 1.36725e-09 0 
6.66792e-07 0 2.10604e-09 0 0 2.81427e-09 0 0 0 
0 0 0 0 0 7.58973e-07 0 1.61621e-09 0 
0 0 0 4.37699e-09 0 0 0 0 0 
0 0 0 0 0 1.16054e-10 1.96228e-09 3.02113e-10 0 
0 2.8802e-09 0 0 0 0 0 0 0 
1.38433e-10 0 0 0 2.77355e-09 0 0 0 0 
0 0 0 0 0 0 0 0 0 
0 0 0 0 0 0 0 0 0 
0 0 0 0 0 0 0 0 0 
0 1.37864e-09 0 2.59698e-10 4.92613e-10 0 0 0 6.68703e-07 
0 0 1.68303e-09 0 0 0 0 4.06001e-09 0 
0 0 5.94962e-10 2.75077e-09 0 0 6.56819e-07 0 0 
0 0 0 1.69595e-09 0 0 0 0 0 
0 0 0 0 9.26103e-07 9.53996e-07 1.78445e-09 0 0 
0 0 0 6.50348e-10 6.50952e-07 0 0 0 0 
0 0 2.95571e-09 0 0 0 0 0 0 
0 0 5.4585e-09 0 0 0 0 0 0 
0 0 0 0 0 0 0 0 0 
0 0 0 0 0 0 0 0 0 
0 0 0 0 0 0 0 0 0 
0 0 0 5.17329e-10 0 0 0 0 0 
0 0 0 0 0 0 0 0 0 
0 0 0 0 0 8.9346e-10 0 0 0 
1.7418e-09 1.38597e-09 0 0 0 0 1.95869e-09 0 1.1271e-09 
0 0 0 0 0 0 0 0 0 
0 0 0 0 0 4.23955e-09 2.98677e-09 0 0 
1.57394e-09 0 0 0 0 1.70121e-10 0 4.68637e-10 0 
3.8704e-09 0 0 5.05729e-09 8.14729e-07 0 0 0 0 
0 0 0 0 0 0 0 0 0 
0 0 0 0 0 0 0 0 0 
0 0 0 0 2.38878e-10 0 0 0 0 
0 0 0 0 0 0 0 9.31978e-10 0 
0 0 0 1.05014e-09 0 0 0 0 0 
0 0 0 0 0 3.45975e-09 3.17391e-09 0 2.6917e-09 
0 1.54313e-09 1.33908e-09 0 0 0 0 0 0 
0 0 0 0 0 0 0 9.92271e-07 9.87753e-09 
0 0 0 0 2.4457e-09 0 0 0 2.45454e-09 
8.04554e-10 0 0 2.18167e-09 0 0 0 0 0 
0 0 3.98609e-09 0 9.73024e-07 0 0 0 1.13152e-09 
0 0 0 0 0 0 0 0 0 
0 0 0 0 0 0 0 0 0 
0 0 0 0 0 0 0 0 1.71989e-09 
5.00156e-09 0 0 0 5.31277e-10 0 0 0 6.46931e-07 
4.56012e-09 5.2227e-10 0 1.96085e-09 0 0 1.90664e-09 0 0 
0 0 0 0 0 1.0735e-09 0 6.66433e-07 0 
0 0 0 3.6285e-10 0 0 0 0 0 
9.21173e-10 0 0 0 2.37422e-09 0 0 0 9.31443e-07 
0 0 0 0 7.39974e-07 0 0 0 0 
0 0 0 0 0 0 0 1.90558e-09 2.93463e-09 
0 6.71956e-07 1.49093e-09 3.88817e-10 0 9.10204e-07 0 0 6.93086e-10 
1.14233e-09 0 0 0 0 0 0 0 0 
0 0 0 0 0 0 0 0 0 
0 0 0 0 0 0 0 0 0 
0 0 0 7.12576e-10 0 0 0 0 0 
2.95044e-09 1.96524e-09 0 9.99217e-10 0 0 1.45261e-09 0 0 
0 0 0 0 0 0 0 0 1.1395e-09 
0 1.25971e-09 2.66231e-09 0 0 2.45986e-09 0 0 0 
1.12224e-09 0 0 2.03545e-09 0 8.28894e-10 1.51182e-09 0 0 
6.21062e-09 0 0 9.39395e-07 0 1.3177e-09 0 3.74008e-09 0 
9.60388e-10 4.50774e-09 0 2.23107e-09 3.05805e-09 0 6.60423e-07 0 0 
2.1917e-09 0 3.96921e-09 1.67122e-09 3.46432e-09 0 0 0 0 
0 0 0 0 0 0 0 0 0 
0 0 0 0 0 0 0 0 0 
0 0 0 0 0 0 0 0 0 
0 6.10643e-09 6.7192e-07 5.52089e-09 0 4.54266e-10 0 0 0 
2.70472e-10 6.62276e-10 1.68668e-09 8.3709e-10 0 0 0 0 6.47534e-07 
0 0 0 0 0 0 0 0 0 
0 0 6.77282e-09 0 0 4.06699e-09 0 1.28774e-09 0 
0 1.56516e-09 0 0 0 9.95087e-10 0 0 0 
0 0 1.43548e-09 0 9.04112e-07 0 0 4.17849e-09 0 
6.90778e-07 0 1.406e-09 6.8075e-07 4.27052e-09 0 0 4.92397e-09 2.70076e-09 
0 2.3174e-09 0 0 0 0 0 0 2.01821e-09 
1.74964e-09 8.35273e-10 0 0 0 0 0 0 0 
0 0 0 0 0 0 0 0 0 
0 0 0 0 0 0 0 0 0 
0 0 0 0 0 6.53471e-10 1.30533e-10 0 0 
0 0 0 0 0 0 0 0 0 
1.18369e-09 0 0 0 4.9853e-10 0 0 0 0 
1.35955e-09 0 0 0 0 0 7.58231e-07 0 0 
0 1.44482e-09 0 0 0 0 0 0 0 
0 0 0 0 0 0 0 1.16669e-09 0 
0 7.06029e-10 0 9.65321e-10 4.40701e-09 0 5.87082e-09 0 0 
0 0 0 0 0 5.25142e-09 4.15371e-09 0 9.15192e-10 
0 0 0 0 0 0 0 0 0 
0 0 0 0 0 0 0 0 0 
0 0 0 0 0 0 0 0 0 
0 0 0 0 0 3.71504e-09 0 0 0 
3.8131e-10 0 3.13862e-09 0 0 0 4.77497e-11 0 1.1242e-09 
0 0 0 0 0 0 0 0 0 
4.50498e-10 0 0 1.45482e-09 0 0 0 0 2.81553e-09 
3.09198e-09 0 0 0 6.74262e-07 0 0 0 0 
0 0 1.45933e-09 0 0 0 0 0 0 
0 0 5.94332e-10 0 0 0 0 2.35564e-09 0 
9.92619e-10 0 4.19482e-09 0 0 7.71759e-07 0 0 0 
0 0 0 0 0 0 0 0 0 
0 0 0 0 0 0 0 0 0 
0 0 0 0 0 0 0 1.88969e-10 0 
9.56658e-10 0 0 8.6817e-07 8.84602e-07 0 0 0 0 
0 0 0 6.42161e-09 0 0 0 0 2.88841e-10 
8.19473e-10 0 0 1.90959e-09 0 0 0 0 0 
0 0 0 0 0 0 0 8.6654e-07 1.19918e-09 
0 0 0 0 4.90493e-09 0 0 0 6.69367e-07 
0 0 0 0 6.55776e-07 0 0 0 0 
3.82866e-10 0 0 2.5452e-09 0 0 0 0 0 
0 0 6.78609e-07 0 0 0 0 7.60078e-07 0 
0 0 3.89343e-10 0 0 0 0 0 0 
0 0 0 0 0 0 0 0 0 
0 0 0 0 0 0 0 0 0 
0 1.57949e-09 0 0 0 0 5.6173e-09 0 0 
1.74267e-09 0 0 0 0 6.40934e-07 7.46331e-09 3.22997e-09 0 
0 8.94815e-10 0 1.89502e-09 6.46919e-07 0 1.72623e-09 0 0 
3.33315e-10 0 0 0 0 0 0 0 0 
0 0 0 0 4.67406e-09 6.69671e-10 0 0 7.44463e-10 
0 5.64529e-09 0 0 0 0 0 1.06765e-09 0 
1.76549e-09 0 6.5426e-07 0 0 0 2.47662e-09 0 0 
6.78345e-07 0 0 2.70663e-09 0 1.40991e-09 0 0 0 
0 0 0 0 0 0 0 0 0 
0 0 0 0 0 0 0 0 0 
0 0 0 0 0 0 0 0 0 
0 0 6.84464e-10 0 1.85758e-09 0 0 0 0 
0 0 1.469e-09 0 0 0 1.67269e-09 0 0 
0 0 0 0 0 3.1674e-09 0 0 0 
0 4.97111e-10 0 0 0 0 0 9.80949e-07 1.14322e-06 
1.03669e-06 0 0 1.79114e-09 7.65529e-07 0 0 3.20379e-09 0 
0 0 0 0 0 0 0 0 0 
0 0 2.09454e-09 2.42694e-09 0 1.02561e-09 3.4181e-09 0 0 
1.22468e-09 0 0 0 0 0 0 1.62765e-09 0 
3.06565e-09 0 0 0 0 0 0 0 0 
0 0 0 0 0 0 0 0 0 
0 0 0 0 0 0 0 0 0 
0 0 0 0 0 3.16484e-09 0 0 7.27044e-09 
8.6712e-07 0 0 0 0 0 0 0 0 
0 0 0 0 0 0 0 0 1.03346e-09 
0 0 0 0 0 0 0 0 0 
2.19183e-09 0 0 0 0 0 5.95246e-09 7.27019e-07 0 
0 3.89634e-09 0 0 0 5.25641e-10 0 0 0 
0 9.55184e-10 0 0 0 0 0 0 6.57682e-07 
0 0 0 0 4.17965e-10 0 0 5.19428e-10 0 
0 0 0 0 0 0 0 0 0 
0 0 0 0 0 0 0 0 0 
0 0 0 0 0 0 0 0 0 
0 0 0 0 0 0 0 0 0 
0 8.57199e-07 0 7.0783e-10 0 0 0 0 0 
0 0 0 0 0 0 9.71567e-10 0 1.06643e-09 
0 0 0 0 0 0 9.90657e-10 0 0 
0 1.71743e-09 0 2.34242e-09 0 7.3276e-07 0 0 4.10379e-09 
0 0 0 0 4.38805e-10 0 0 0 0 
4.88112e-10 0 0 0 0 0 0 0 0 
0 0 2.04637e-09 0 0 0 0 0 0 
0 0 0 4.64192e-10 0 0 0 0 0 
0 0 0 0 0 0 0 0 0 
0 0 0 0 0 0 0 0 0 
0 0 0 0 0 0 0 0 0 
0 0 1.81533e-08 0 2.53279e-09 0 0 0 0 
0 0 0 0 0 0 0 0 0 
0 0 0 0 0 1.24461e-09 0 2.53386e-09 0 
4.35492e-09 7.03547e-07 2.93369e-09 0 0 0 6.80044e-09 3.94375e-09 5.89554e-09 
0 0 0 0 8.58066e-07 0 0 0 0 
0 0 0 0 0 0 0 0 0 
0 0 1.5618e-09 7.02296e-10 0 2.24805e-09 2.27589e-09 0 0 
1.215e-09 0 0 0 0 0 0 0 0 
0 0 0 0 0 0 0 0 0 
0 0 0 0 0 0 0 0 0 
0 0 0 0 0 0 0 0 0 
0 0 1.94047e-09 4.29579e-10 0 0 0 0 0 
0 3.1869e-10 0 0 0 0 0 0 0 
2.41017e-10 0 0 0 0 3.15293e-09 0 5.79836e-09 1.25854e-09 
0 0 1.9569e-09 0 9.47569e-10 1.70591e-09 0 1.92198e-09 0 
1.25491e-09 0 0 0 2.63792e-09 8.54074e-07 0 3.8987e-09 1.90378e-09 
0 0 0 0 0 0 0 0 0 
0 0 0 0 5.74191e-10 5.85325e-10 0 0 2.33517e-09 
0 0 0 0 0 0 0 0 0 
0 0 0 0 0 0 0 0 0 
0 0 0 0 0 0 0 0 0 
0 0 0 0 0 0 0 4.04864e-09 0 
0 0 7.03331e-10 1.03044e-09 0 0 0 0 0 
0 3.69133e-10 0 0 0 0 0 0 0 
0 0 0 0 0 0 1.11358e-09 3.29479e-09 0 
0 0 0 1.76047e-09 0 0 0 0 0 
6.61472e-10 0 0 0 0 0 0 0 0 
0 0 0 0 0 9.05847e-10 0 0 0 
0 0 0 0 0 0 1.44036e-09 0 6.48125e-07 
0 1.70312e-09 0 0 0 0 0 0 0 
0 0 0 0 0 0 0 0 0 
0 0 0 0 0 0 0 0 0 
0 0 0 0 0 0 0 8.4052e-10 6.40133e-07 
0 0 1.16072e-09 0 0 0 2.45155e-10 0 1.21323e-09 
8.17971e-10 0 0 0 0 0 0 0 0 
0 0 0 0 4.25351e-10 0 0 0 6.63016e-10 
0 0 0 0 0 0 0 0 0 
0 0 0 0 0 1.49276e-09 0 5.07045e-09 0 
1.75017e-09 0 1.17399e-10 0 4.30557e-09 0 0 0 0 
0 0 0 0 0 0 0 0 3.10772e-09 
2.17484e-09 0 0 0 0 0 0 0 0 
0 0 0 0 0 0 0 0 0 
0 0 0 0 0 0 0 0 0 
0 0 0 0 0 0 0 0 2.20572e-09 
1.71652e-09 0 7.78969e-10 8.4715e-10 0 0 9.88913e-10 0 0 
0 0 0 0 0 0 0 0 0 
0 0 0 0 7.98814e-10 0 0 0 1.32405e-09 
0 0 0 0 0 0 0 0 0 
0 0 0 0 0 0 0 0 0 
0 0 2.76388e-09 0 1.42609e-09 6.7711e-07 0 0 0 
0 0 0 0 0 0 0 0 0 
0 0 0 0 0 0 0 1.26909e-09 0 
0 0 0 0 0 0 0 0 0 
0 0 0 0 0 0 0 0 0 
0 0 0 0 0 0 0 0 0 
0 2.11892e-09 1.905e-09 0 0 0 0 2.88463e-09 6.54276e-07 
4.668e-09 0 0 1.99191e-09 0 0 0 0 0 
1.71833e-10 0 0 0 0 6.99913e-10 0 0 0 
0 0 0 0 0 0 0 0 0 
0 0 0 0 0 0 0 0 0 
0 0 2.45802e-09 0 0 0 0 0 3.42629e-09 
0 0 5.64115e-10 0 0 0 0 0 0 
1.09741e-09 0 0 0 0 0 0 0 0 
0 0 0 6.79418e-10 1.50652e-10 0 0 0 0 
0 0 0 0 0 0 0 0 0 
0 0 0 0 0 0 0 0 0 
0 0 0 0 0 0 0 0 0 
0 0 4.21738e-09 2.08257e-10 6.67893e-07 0 0 1.60593e-09 0 
0 0 0 0 0 0 0 0 0 
0 0 0 0 1.13049e-09 0 0 2.53678e-09 0 
0 0 0 0 0 4.30848e-10 0 0 0 
0 8.95052e-10 0 0 5.55339e-09 0 6.28054e-09 0 0 
4.66133e-09 5.99413e-10 0 0 0 0 0 0 0 
2.60519e-10 3.78006e-10 2.10328e-09 0 6.48112e-07 4.30893e-09 0 0 3.11736e-09 
0 1.9543e-09 0 0 0 0 0 0 0 
0 0 0 0 0 0 0 0 0 
0 0 0 0 0 0 0 0 0 
0 0 0 0 0 0 0 0 0 
0 0 0 0 0 0 0 0 0 
0 0 0 9.59348e-10 3.23982e-09 0 0 2.40296e-09 0 
2.34661e-09 0 0 0 0 0 3.0201e-09 6.41528e-07 0 
4.66899e-09 0 0 0 0 0 0 0 0 
6.42833e-07 4.82396e-09 0 1.67812e-09 0 0 0 0 0 
9.22922e-09 6.58091e-07 0 2.52827e-09 0 0 0 0 0 
0 0 1.02825e-09 0 0 1.50225e-09 0 0 0 
0 0 8.49823e-07 0 0 0 0 0 0 
0 0 0 0 0 0 0 0 0 
0 0 0 0 0 0 0 0 0 
0 0 0 0 0 0 0 0 0 
0 0 0 0 0 0 4.82278e-09 0 0 
1.60394e-09 3.21189e-10 0 0 6.00868e-10 0 6.65451e-07 0 3.94162e-09 
0 0 0 0 0 0 2.1701e-09 6.81375e-10 0 
0 0 0 0 1.85356e-10 0 0 0 0 
0 0 1.93893e-09 0 0 0 0 0 0 
0 0 1.88593e-09 2.70172e-09 0 0 0 0 0 
0 0 0 0 0 0 0 0 1.29329e-09 
9.50278e-10 2.69936e-09 0 8.49585e-07 5.39435e-09 0 0 0 0 
0 0 0 0 0 0 0 0 0 
0 0 0 0 0 0 0 0 0 
0 0 0 0 0 0 0 0 1.22815e-09 
0 2.15645e-09 0 0 0 0 6.8894e-07 2.69706e-09 0 
1.0901e-09 1.33661e-09 0 0 0 0 0 0 0 
0 0 0 8.06038e-07 1.04145e-09 0 0 0 0 
0 6.30116e-10 0 0 0 0 0 4.4082e-10 0 
2.41728e-09 0 0 0 0 0 0 0 0 
1.20714e-09 0 0 0 0 0 0 0 0 
0 0 0 0 0 0 0 0 0 
0 0 0 0 0 0 1.37483e-09 6.6368e-10 0 
0 0 0 0 0 0 0 0 0 
0 0 0 0 0 0 0 0 0 
0 0 0 0 0 0 3.58564e-09 1.34786e-09 0 
0 0 0 2.97815e-09 0 0 0 0 3.29867e-09 
0 0 0 0 0 0 0 0 0 
0 0 7.28719e-07 0 2.76209e-09 7.80214e-07 9.47693e-09 0 0 
1.77352e-09 1.08788e-09 0 0 0 0 0 0 0 
0 0 0 0 0 0 0 0 0 
0 0 0 0 0 0 0 0 0 
0 0 0 0 0 0 0 0 0 
0 0 0 0 0 0 2.1436e-09 2.51116e-09 0 
0 0 0 0 0 0 0 0 0 
0 0 0 0 0 0 0 0 0 
0 0 0 0 0 0 0 6.43318e-07 0 
0 0 0 0 8.73273e-07 3.96562e-09 0 0 0 
0 0 0 0 0 0 0 6.55417e-07 1.8618e-09 
0 0 3.5083e-09 7.83415e-09 0 0 0 0 3.84475e-09 
0 0 0 0 0 0 0 6.87024e-10 0 
0 0 0 0 8.53938e-10 0 0 0 0 
0 0 0 0 0 0 0 0 0 
0 0 0 0 0 0 0 0 0 
0 0 0 0 0 0 3.01646e-10 7.21817e-10 0 
0 0 0 0 0 0 0 0 0 
0 0 0 0 0 0 0 0 0 
0 0 0 0 0 0 0 0 4.29106e-09 
3.54225e-09 0 0 0 7.82511e-07 0 0 3.18288e-09 0 