# vtk DataFile Version 5.1
vtk output
ASCII
DATASET STRUCTURED_POINTS
DIMENSIONS 100 100 1
SPACING 1 1 1
ORIGIN 0 0 0
POINT_DATA 10000
FIELD FieldData 6
feature_1 1 10000 float
0 0 0 0 0 0 0 0 0 
0 0 0 0 0 0 0 0 0 
0 0 0 0 0 0 0 0 0 
0 0 0 0 0 0 0 0 0 
0 0 0 0 0 0 0 0 0 
0 0 0 0 0 0 0 0 0 
0 0 0 0 0 0 0 0 0 
0 0 0 0 0 0 0 0 0 
0 0 0 0 0 0 0 0 0 
0 0 0 0 0 0 0 0 0 
0 0 0 0 0 0 0 0 0 
0 0 0 0 0 0 0 0 0 
0 0 0 0 0 0 0 0 0 
0 0 0 0 0 0 0 0 0 
0 0 0 0 0 0 0 0 0 
0 0 0 0 0 0 0 0 0 
0 0 0 0 0 0 0 0 0 
0 0 0 0 0 0 0 0 0 
0 0 0 0 0 0 0 0 0 
0 0 0 0 0 2.75669e-11 0 0 0 
0 0 0 0 0 0 0 0 0 
0 0 0 0 0 0 0 0 0 
0 0 0 0 0 0 0 0 0 
0 0 0 0 0 0 0 0 0 
0 0 0 0 0 0 0 0 0 
0 0 0 0 0 0 0 0 0 
0 0 0 0 0 0 0 0 0 
0 0 0 0 0 0 0 0 0 
0 0 0 0 0 0 0 0 0 
0 0 0 0 0 0 0 0 0 
0 0 0 0 0 0 0 0 0 
0 0 0 0 0 0 0 0 0 
0 0 0 0 0 0 0 0 0 
0 0 0 0 0 0 0 0 0 
0 0 0 0 0 0 0 0 0 
0 0 0 0 0 0 0 0 0 
0 0 0 0 0 0 0 0 0 
0 0 0 0 0 0 0 0 0 
0 0 0 0 0 0 0 0 0 
0 0 0 0 0 0 0 0 0 
0 0 0 0 0 0 0 0 0 
0 0 0 0 0 0 0 0 0 
0 0 0 0 0 0 0 0 0 
0 0 0 0 0 0 0 0 0 
0 0 0 0 0 0 0 0 0 
0 0 0 0 0 0 0 0 0 
0 0 0 0 0 0 0 0 0 
0 0 0 0 0 0 0 0 0 
0 0 0 0 0 0 0 0 0 
0 0 0 0 0 0 0 0 0 
0 0 0 0 0 0 0 0 0 
0 0 0 0 0 0 0 0 0 
0 0 0 0 0 0 0 0 0 
0 0 0 0 0 0 0 0 0 
0 0 0 0 0 0 0 0 0 
0 0 0 0 0 0 0 0 0 
0 0 0 0 0 0 0 0 0 
0 0 0 0 0 0 0 0 0 
0 0 0 0 0 0 0 0 0 
0 0 0 0 0 0 0 0 0 
0 0 0 0 0 0 0 0 0 
0 0 0 0 0 0 0 0 0 
0 0 0 0 0 0 0 0 0 
0 0 0 0 0 0 0 0 0 
0 0 0 0 0 0 0 0 0 
0 0 0 0 0 0 0 0 0 
0 0 0 0 0 0 0 0 0 
0 0 0 0 0 0 0 0 0 
0 0 0 0 0 0 0 0 0 
0 0 0 0 0 0 0 0 0 
0 0 0 0 0 0 0 0 0 
0 0 0 0 0 0 0 0 0 
0 0 0 0 0 0 0 0 0 
0 0 0 0 0 0 0 0 0 
0 0 0 0 0 0 0 0 0 
0 0 0 0 0 0 0 0 0 
0 0 0 0 0 0 0 0 0 
0 0 0 0 0 0 0 0 0 
0 0 0 0 0 0 0 0 0 
0 0 0 0 0 0 0 0 0 
0 0 0 0 0 0 0 0 0 
0 0 0 0 0 0 0 0 0 
0 0 0 0 0 0 0 0 0 
0 0 0 0 0 0 0 0 0 
0 0 0 0 0 0 0 0 0 
0 0 0 0 0 0 0 0 0 
0 0 0 0 0 0 0 0 0 
0 0 0 0 0 0 0 0 0 
0 0 0 0 0 0 0 0 0 
0 0 0 0 0 0 0 0 0 
0 0 0 0 0 0 0 0 0 
0 0 0 0 0 0 0 0 0 
0 0 0 0 0 0 0 0 0 
0 0 0 0 0 0 0 0 0 
0 0 0 0 0 0 0 0 0 
0 0 0 0 0 0 0 0 0 
0 0 0 0 0 0 0 0 0 
0 0 0 0 0 0 0 0 0 
0 0 0 0 0 0 0 0 0 
0 0 0 0 0 0 0 0 0 
0 0 0 0 0 0 0 0 0 
0 0 0 0 0 0 0 0 0 
0 0 0 0 0 0 0 0 0 
0 0 0 0 0 0 0 0 0 
0 0 0 0 0 0 0 0 0 
0 0 0 0 0 0 0 0 0 
0 0 0 0 0 0 0 0 0 
0 0 0 0 0 0 0 0 0 
0 0 0 0 0 0 0 0 0 
0 0 0 0 0 0 0 0 0 
0 0 0 0 0 0 0 0 0 
0 0 0 0 0 0 0 0 0 
0 0 0 0 0 0 0 0 0 
0 0 0 0 0 0 0 0 0 
0 0 0 0 0 0 0 0 0 
0 0 0 0 0 0 0 0 0 
0 1.68363e-09 0 0 0 0 0 0 0 
0 0 0 0 0 0 0 2.35065e-09 4.38652e-10 
0 0 0 0 0 0 0 0 0 
0 0 0 0 0 0 0 0 0 
0 0 0 0 0 0 0 0 0 
0 0 0 0 0 0 0 0 0 
0 0 0 0 0 0 0 0 0 
0 0 0 0 0 0 0 0 0 
0 0 0 0 0 0 0 0 0 
0 0 0 0 0 0 0 0 0 
0 0 0 0 0 0 0 0 1.05258e-09 
0 0 0 0 0 0 0 0 0 
0 0 0 0 0 0 0 0 0 
0 0 0 0 0 0 0 0 0 
0 0 0 0 0 0 0 0 0 
0 0 0 0 0 0 0 0 0 
0 0 0 0 0 0 0 0 0 
0 0 0 0 0 0 0 0 0 
0 0 0 0 0 0 0 0 0 
0 0 0 0 0 0 0 0 0 
0 0 0 0 0 0 0 0 0 
0 0 0 0 0 0 0 0 0 
0 0 0 7.92728e-07 6.07576e-09 2.42537e-09 0 1.01448e-09 0 
0 0 0 0 0 0 1.98222e-09 1.13561e-09 6.44952e-07 
1.68347e-09 0 0 0 0 0 0 0 0 
0 0 0 0 0 0 0 0 0 
0 0 0 0 0 0 0 0 0 
0 0 0 0 0 0 0 0 0 
0 0 0 0 0 0 0 0 0 
0 0 0 0 0 0 0 0 0 
0 0 0 0 0 0 0 0 0 
0 0 0 0 4.65991e-10 0 0 0 0 
0 0 0 1.32106e-09 0 0 0 0 0 
3.15584e-09 0 0 8.33482e-07 0 6.50211e-09 0 0 0 
8.14663e-10 0 0 0 0 0 0 0 0 
0 0 1.75987e-09 1.20956e-09 8.48132e-10 0 0 0 0 
0 0 0 0 0 0 0 0 0 
0 1.68347e-09 0 0 0 0 0 0 0 
0 0 0 0 0 0 0 0 0 
0 0 0 0 0 0 0 0 0 
0 0 0 0 0 0 0 0 0 
0 0 0 0 0 0 0 0 0 
0 0 0 0 4.48345e-09 6.46856e-07 0 0 0 
0 0 0 1.7474e-09 0 7.54946e-09 0 0 1.31531e-09 
0 0 0 0 0 0 0 0 1.47584e-09 
0 0 0 0 0 0 0 0 0 
0 0 0 0 0 0 0 0 0 
0 0 0 0 0 0 1.10887e-09 0 0 
6.46158e-07 1.39293e-09 0 8.33283e-10 0 0 0 0 0 
0 0 0 0 0 0 0 0 0 
0 0 0 0 0 0 0 0 0 
0 0 0 0 0 0 0 0 0 
0 0 0 0 0 0 0 0 0 
0 0 0 0 0 0 0 0 0 
0 0 0 0 9.70108e-10 3.78139e-09 0 4.40071e-09 2.65762e-09 
0 0 0 0 0 0 7.98651e-07 0 0 
8.92549e-10 0 0 0 0 0 0 0 0 
0 0 1.31537e-09 0 0 0 0 0 0 
0 0 0 0 1.02224e-09 0 0 0 0 
0 5.13422e-11 0 0 4.56387e-10 0 0 0 0 
0 0 0 0 0 0 0 0 0 
0 0 0 0 0 0 0 0 0 
0 0 0 0 0 0 0 0 0 
0 0 0 0 0 0 0 0 0 
0 0 0 0 0 0 1.91591e-09 0 0 
7.35235e-10 0 0 3.89043e-10 0 0 2.38997e-09 0 0 
0 0 8.95617e-10 0 0 7.41725e-07 1.19146e-08 0 0 
0 0 6.89629e-07 0 7.91293e-10 9.66702e-10 0 0 0 
0 0 0 0 1.43303e-09 0 1.88867e-09 0 1.57048e-09 
0 2.14545e-09 0 0 0 0 0 0 0 
0 0 0 5.11734e-10 0 0 0 0 0 
0 0 0 0 0 0 0 0 0 
0 0 0 0 0 0 0 0 0 
0 0 0 0 0 0 0 0 0 
0 0 0 0 0 0 0 0 0 
0 0 0 0 0 0 1.27583e-09 5.12017e-09 0 
2.06245e-09 0 0 0 0 0 0 0 1.99892e-09 
1.68573e-09 0 0 0 1.21784e-09 1.77052e-09 0 0 2.2011e-09 
0 0 0 0 0 0 7.00101e-10 0 0 
0 0 0 0 0 0 0 7.19014e-07 0 
7.19144e-07 7.95804e-09 0 0 0 0 0 0 6.67326e-07 
0 0 0 0 0 0 0 0 0 
0 0 0 0 0 0 0 0 0 
0 0 0 0 0 0 0 0 0 
0 0 0 0 0 0 0 0 0 
0 0 0 0 0 0 0 0 0 
0 1.7428e-12 0 0 0 3.51185e-09 0 1.40723e-09 0 
0 0 0 0 0 0 0 0 1.66378e-09 
0 0 0 0 0 0 0 0 0 
0 0 0 0 0 0 1.76846e-09 0 0 
0 0 0 0 0 0 0 0 0 
0 0 2.18071e-09 0 0 0 0 1.08202e-09 0 
0 0 2.00729e-09 2.02582e-09 1.26952e-09 0 0 0 0 
0 0 0 0 0 0 0 0 0 
0 0 0 0 0 0 0 0 0 
0 0 0 0 0 0 0 0 0 
0 0 0 0 0 0 0 0 0 
0 0 0 0 0 0 0 1.81059e-09 1.61339e-09 
3.83981e-09 6.49589e-07 0 0 0 0 0 0 0 
0 0 0 0 6.50113e-07 0 0 0 0 
0 8.98468e-07 9.15234e-07 0 1.81559e-09 7.20331e-07 0 0 0 
0 0 0 0 0 0 0 1.76837e-09 0 
0 1.6142e-09 0 0 0 1.44218e-09 0 1.64286e-09 0 
1.99537e-09 0 8.00771e-10 1.28893e-09 1.09786e-09 0 0 0 0 
0 0 0 0 0 0 0 0 0 
0 0 0 0 0 0 0 0 0 
0 0 0 0 0 0 0 0 0 
0 0 0 0 0 0 0 0 0 
0 0 0 6.47731e-10 1.81583e-09 4.22213e-09 6.46941e-07 5.43364e-09 0 
0 2.64396e-09 3.44935e-09 0 0 0 0 0 1.15416e-10 
0 0 0 0 0 0 0 0 1.52395e-09 
0 0 0 0 0 0 1.68688e-09 0 1.09544e-09 
0 0 1.16933e-09 0 0 0 0 0 0 
0 0 0 0 0 0 2.13961e-10 0 0 
0 6.68444e-07 1.07024e-09 0 0 0 0 0 0 
0 0 0 0 0 0 0 1.52532e-09 0 
0 0 0 0 0 0 0 0 0 
0 0 0 0 0 0 0 0 0 
0 0 0 0 0 0 0 0 0 
0 0 0 0 0 1.03103e-09 0 0 5.01691e-09 
1.95758e-09 0 1.51253e-09 0 1.56839e-09 0 0 0 0 
0 8.3612e-10 0 0 0 0 0 0 0 
1.47093e-09 0 0 0 0 0 0 3.07767e-09 0 
1.38684e-09 0 0 0 0 0 0 0 0 
0 0 5.70058e-10 0 0 1.7439e-09 3.79456e-11 0 0 
0 0 0 0 6.6975e-10 0 0 0 1.7509e-09 
0 0 0 0 0 0 1.33764e-09 4.97086e-09 0 
0 0 0 0 0 0 0 0 0 
0 0 0 0 0 0 0 0 0 
0 0 0 0 0 0 0 0 0 
0 0 0 0 0 0 0 0 0 
0 0 0 0 0 0 0 0 0 
0 0 0 0 0 0 0 0 0 
0 0 0 0 0 1.91368e-09 0 0 2.91328e-10 
0 4.10705e-10 0 0 0 0 0 0 0 
0 0 0 0 0 0 0 4.38805e-09 0 
0 0 0 0 0 1.65304e-09 0 0 0 
0 0 0 0 0 0 0 0 0 
7.18965e-07 0 1.85364e-09 1.55075e-09 0 0 0 0 0 
0 0 0 0 0 0 0 0 0 
0 0 0 0 0 0 0 0 0 
0 0 0 0 0 1.38253e-09 0 0 0 
0 0 0 0 0 0 0 1.58473e-09 0 
0 0 7.25742e-10 3.9562e-10 0 0 7.95547e-10 0 0 
2.36628e-10 0 0 0 1.59993e-09 0 0 8.76537e-07 8.73958e-07 
0 0 0 0 0 0 0 0 5.61677e-10 
0 0 0 0 0 0 0 0 6.46576e-07 
0 0 0 2.87491e-10 0 0 0 0 0 
0 6.54939e-07 0 0 0 0 0 0 2.88919e-09 
5.74945e-09 0 0 0 0 0 0 0 0 
0 0 0 0 0 0 0 0 0 
0 0 0 0 0 0 0 0 0 
6.86172e-10 0 0 0 0 0 0 1.1191e-09 0 
0 0 0 0 0 0 0 0 0 
1.23526e-09 0 0 0 0 7.38165e-10 0 0 0 
0 0 0 0 0 1.73718e-09 0 0 3.39277e-09 
0 0 2.04101e-09 1.27818e-10 0 0 6.45893e-07 1.77375e-09 0 
9.28868e-10 0 0 0 0 0 0 2.76026e-09 0 
0 0 0 0 0 0 4.7249e-09 0 0 
0 0 1.40761e-09 3.70523e-10 3.77153e-09 0 1.21281e-09 0 1.07498e-09 
1.46325e-09 0 7.25611e-07 0 0 0 0 0 0 
0 0 0 0 0 0 0 0 0 
0 0 0 0 0 0 0 0 0 
0 0 0 9.93162e-10 1.17151e-09 1.58013e-10 0 0 0 
0 0 0 0 0 0 0 0 0 
0 0 3.00162e-09 0 9.32688e-10 0 9.26699e-10 1.61835e-10 0 
0 0 0 0 0 0 0 1.98179e-09 0 
4.39935e-09 0 0 0 2.53939e-09 0 0 2.58985e-09 9.04587e-10 
0 0 1.17159e-09 0 0 0 0 6.15373e-10 0 
0 0 1.4751e-09 1.06135e-09 0 0 8.98672e-09 6.54632e-07 4.6585e-09 
0 0 0 0 0 0 0 5.52807e-10 0 
0 0 3.82157e-09 0 0 4.25798e-10 0 0 0 
0 0 0 0 0 0 0 0 0 
0 0 0 0 0 0 0 0 0 
0 0 0 0 0 0 0 0 0 
7.18662e-07 0 0 0 0 0 0 0 0 
0 0 4.18146e-09 6.47108e-07 0 0 1.62858e-09 3.82673e-09 6.98906e-07 
0 2.40852e-09 1.6035e-09 0 0 0 0 1.25157e-09 0 
0 0 0 0 1.38144e-09 0 0 0 0 
0 0 0 0 0 0 0 0 7.19115e-10 
0 0 1.16229e-09 0 1.95091e-09 0 0 0 3.13735e-09 
0 0 2.92902e-09 0 0 0 0 1.09923e-09 0 
0 0 0 2.80309e-09 0 0 2.58207e-09 0 0 
0 0 0 0 0 0 0 0 0 
0 0 0 0 0 0 0 0 0 
0 0 0 6.59851e-07 0 0 0 0 7.75532e-07 
0 0 0 0 0 0 0 0 0 
0 0 0 0 0 0 0 0 0 
0 0 7.06236e-07 0 0 3.92428e-09 0 0 0 
0 9.36081e-10 2.85108e-09 2.72659e-11 0 7.30062e-10 0 0 0 
1.18944e-09 0 0 0 0 0 0 0 0 
0 1.04777e-09 0 0 0 0 0 0 0 
0 0 0 0 0 6.5622e-07 0 0 1.3437e-09 
0 4.8012e-10 0 0 6.07205e-10 8.77772e-10 0 1.46358e-09 0 
0 0 0 0 0 0 0 0 0 
0 0 0 0 0 0 0 0 0 
0 0 1.51952e-09 4.11107e-09 0 0 0 0 0 
0 0 3.53312e-09 2.25201e-09 0 0 1.13972e-09 0 0 
0 0 0 0 1.17945e-09 0 0 0 0 
1.6383e-09 0 0 0 0 0 2.26784e-09 6.03023e-09 3.64983e-09 
0 5.95804e-09 7.04311e-07 0 0 2.67173e-10 0 0 0 
0 0 0 0 3.85357e-09 2.92744e-09 4.75064e-09 1.64961e-09 0 
0 0 4.91224e-10 0 0 0 2.01076e-09 0 0 
0 0 2.49575e-09 0 0 0 0 0 0 
0 0 0 0 0 6.73309e-07 0 0 0 
1.61675e-10 0 0 0 0 0 0 0 0 
0 0 0 0 0 0 0 0 0 
0 0 0 0 0 0 1.41672e-09 0 7.11362e-07 
9.14515e-09 1.16634e-09 7.43708e-07 4.78328e-09 2.61244e-09 0 0 0 0 
0 6.67566e-10 0 0 0 0 0 0 0 
0 1.17258e-09 1.38238e-09 0 0 0 0 0 0 
0 0 0 7.26659e-09 0 0 0 0 0 
0 0 0 0 1.29525e-09 0 6.59159e-07 4.6425e-09 2.48128e-09 
0 0 0 0 0 0 6.50314e-07 2.26892e-09 1.71873e-09 
0 0 6.73997e-09 3.57082e-09 2.62233e-09 0 0 0 8.64636e-10 
0 0 0 0 0 0 0 0 0 
0 0 0 0 0 0 0 0 0 
0 0 0 0 0 0 0 0 0 
0 0 0 0 0 0 2.15212e-09 2.20539e-09 0 
0 0 0 0 0 6.25906e-10 1.40464e-09 0 2.79677e-09 
0 0 2.86619e-09 1.64228e-09 0 0 0 0 0 
0 0 3.74182e-10 0 0 0 0 0 0 
7.02436e-07 0 0 7.23921e-07 4.75999e-09 0 0 0 0 
0 0 0 0 0 0 0 2.64941e-09 0 
0 0 0 1.68799e-09 1.42656e-09 0 4.57566e-09 0 3.61505e-09 
0 0 4.17449e-09 6.50576e-07 0 0 1.12068e-09 0 1.1583e-09 
0 0 0 0 1.97661e-09 0 0 0 0 
0 0 4.81035e-10 0 0 0 0 0 0 
0 0 0 0 0 0 0 0 0 
0 0 0 0 0 0 0 0 4.98305e-10 
0 0 0 0 0 0 2.041e-09 3.29429e-09 0 
0 8.71896e-07 0 0 0 0 0 0 0 
0 0 0 0 0 0 0 7.21028e-07 0 
5.62186e-09 0 0 0 0 0 0 0 0 
0 0 0 2.04951e-10 1.58162e-09 2.51418e-09 2.0592e-09 3.85512e-09 0 
0 0 0 0 0 0 0 0 0 
0 0 0 0 0 0 0 0 0 
0 0 0 0 0 0 0 6.76161e-07 4.67095e-09 
0 0 0 0 0 0 0 0 0 
0 0 0 0 0 0 0 0 0 
0 0 0 0 0 0 0 0 2.88161e-10 
0 1.29186e-09 1.20237e-09 0 1.6818e-09 0 0 1.73233e-10 0 
3.91253e-09 0 8.85279e-07 0 0 0 0 0 0 
0 0 0 0 0 2.75952e-09 0 5.69487e-09 0 
0 0 3.29616e-09 2.89114e-09 0 0 0 0 1.30407e-09 
0 0 0 0 0 0 0 5.20696e-07 6.66871e-10 
0 3.29986e-09 0 0 0 0 2.49464e-09 3.42078e-09 0 
0 0 1.28222e-09 1.91752e-09 0 0 0 0 0 
0 0 0 0 0 0 1.98204e-09 0 0 
0 0 0 0 0 0 0 0 0 
0 0 0 0 0 0 0 0 2.27142e-11 
0 0 0 0 0 0 0 0 0 
0 0 0 0 0 0 8.42082e-10 0 0 
0 0 0 0 0 5.6841e-09 6.84711e-07 4.53901e-09 0 
0 0 0 0 7.88947e-10 0 0 0 0 
0 0 0 0 0 0 0 0 0 
0 0 0 0 0 0 0 0 5.60048e-09 
0 0 0 0 7.48482e-07 0 8.04894e-07 0 0 
0 0 0 0 0 0 0 0 0 
0 0 0 0 0 3.732e-09 6.55937e-07 0 0 
0 0 0 0 0 0 0 0 0 
0 0 0 0 0 0 0 0 0 
0 0 0 0 0 0 0 0 0 
0 0 0 0 0 0 0 0 0 
2.36967e-09 1.49737e-09 0 0 0 0 1.5571e-09 4.46779e-09 7.46945e-10 
0 1.81212e-09 0 0 0 0 0 0 0 
8.99386e-07 9.13606e-07 0 4.14237e-09 3.65877e-10 8.82265e-11 0 0 4.50741e-09 
0 0 0 0 0 0 0 0 0 
7.32347e-10 1.35239e-09 1.94269e-09 0 0 0 0 3.66032e-09 0 
1.85959e-09 0 0 0 0 9.40793e-10 7.66887e-10 0 0 
0 0 0 0 0 0 2.20241e-09 2.41298e-09 0 
2.64889e-09 0 0 0 0 0 0 0 0 
0 0 0 0 0 0 0 0 0 
0 0 0 0 0 0 0 0 0 
0 0 0 0 0 0 0 0 0 
0 0 0 2.50798e-09 0 0 0 0 0 
0 7.86054e-10 0 0 0 0 0 0 2.96439e-09 
0 0 0 0 4.29038e-09 0 0 0 3.43141e-09 
0 0 2.14409e-09 0 3.75596e-09 0 0 0 0 
0 2.66541e-09 0 0 0 0 0 0 3.48524e-09 
8.77663e-07 0 0 7.35643e-07 0 1.35431e-09 1.59547e-09 0 0 
0 0 0 0 0 0 0 0 0 
0 0 0 0 0 0 0 0 0 
0 0 0 0 0 0 0 0 0 
0 0 0 0 0 0 0 0 0 
0 0 0 0 0 0 0 0 0 
0 0 0 3.67105e-09 7.14332e-07 0 9.10022e-09 0 0 
4.18252e-09 3.40906e-09 0 2.14607e-09 0 0 0 0 8.69451e-10 
0 0 0 0 0 0 0 0 0 
0 7.62063e-07 0 0 0 6.5894e-07 0 1.15673e-09 6.92136e-10 
0 8.49763e-10 0 0 1.71058e-09 0 0 0 0 
8.32051e-07 0 0 0 2.96099e-09 0 0 0 0 
0 0 0 0 1.54184e-10 0 0 0 0 
0 0 0 5.77494e-10 4.29206e-10 0 0 0 0 
0 0 0 0 0 0 0 0 0 
0 0 0 0 0 0 0 0 0 
0 0 0 0 0 0 0 0 0 
0 0 8.19411e-10 0 0 0 0 7.79145e-07 4.59236e-09 
0 0 0 6.54215e-07 0 0 1.59462e-09 4.49145e-10 0 
0 1.98277e-09 0 0 7.12579e-07 0 0 0 0 
0 0 1.01631e-08 0 0 0 4.31114e-09 0 1.47222e-09 
0 0 0 0 0 0 6.10811e-10 0 0 
0 0 1.1575e-09 0 7.48281e-07 7.03521e-09 0 0 0 
0 0 0 0 0 0 0 0 0 
0 0 0 0 0 0 0 0 0 
0 0 0 0 0 0 0 0 0 
0 0 0 0 0 0 0 0 0 
0 0 0 0 0 0 0 0 0 
0 0 0 0 0 0 0 0 5.42452e-09 
3.46819e-09 0 0 3.87377e-09 4.65927e-09 0 1.60886e-09 0 0 
0 0 0 0 0 0 0 1.03607e-09 8.37482e-09 
0 8.81064e-07 0 8.2142e-07 2.44497e-09 3.95174e-09 0 0 3.6551e-09 
0 0 0 0 0 0 0 0 0 
0 0 2.32809e-09 0 0 0 0 0 0 
5.62762e-10 0 0 0 0 0 0 0 0 
0 0 0 0 0 0 0 0 0 
0 0 0 0 0 0 0 0 0 
0 0 0 0 0 0 0 0 0 
0 0 0 0 0 0 6.67491e-10 0 0 
0 0 0 0 0 0 1.8148e-09 2.50214e-09 1.02424e-08 
7.33184e-07 0 0 1.40211e-09 0 0 0 1.32851e-09 0 
0 0 0 0 0 0 0 9.03485e-09 0 
0 8.59852e-07 0 0 0 0 0 0 0 
0 0 0 0 0 6.67487e-07 0 3.49716e-09 0 
0 1.63734e-09 0 0 4.29047e-09 0 0 0 0 
0 0 0 0 0 0 0 0 0 
0 0 6.67497e-10 0 0 0 0 0 0 
0 0 0 0 0 0 0 0 0 
0 0 0 0 0 0 0 0 0 
0 0 0 0 0 0 0 6.44233e-07 0 
0 0 0 0 0 0 0 0 0 
0 0 2.0544e-09 0 2.166e-09 0 2.26392e-09 1.46883e-09 0 
0 0 0 8.4249e-10 0 0 0 0 0 
7.54939e-07 0 0 0 0 0 0 0 0 
0 0 0 1.31579e-09 0 0 5.07263e-09 0 3.11401e-09 
0 0 0 0 0 0 2.43446e-09 0 1.10629e-09 
1.2101e-09 0 0 0 0 0 0 0 0 
0 0 0 0 0 0 0 0 0 
6.20317e-10 0 0 0 0 0 0 0 0 
0 0 0 0 0 0 0 0 0 
0 0 0 0 0 0 2.39969e-09 1.99641e-09 0 
0 0 0 0 0 0 0 0 0 
0 3.10683e-09 0 0 0 0 0 0 0 
0 0 0 0 5.28316e-10 0 0 3.0367e-09 0 
0 0 0 0 0 0 5.26852e-10 9.98348e-10 0 
0 0 0 0 0 0 0 0 0 
4.60008e-09 0 0 8.46302e-07 0 8.42004e-07 9.07671e-09 0 7.30831e-10 
0 0 0 0 0 0 0 0 5.01685e-11 
0 0 0 0 3.58834e-09 0 0 0 0 
2.24834e-09 9.19115e-10 0 0 0 0 0 0 0 
0 0 0 0 0 0 0 0 0 
0 0 0 0 0 0 0 0 0 
0 0 0 0 1.49528e-09 3.02006e-09 0 0 0 
0 0 0 0 0 0 0 0 0 
0 0 0 0 2.24676e-10 0 0 0 0 
1.64788e-09 0 5.10404e-09 0 0 3.95619e-09 0 0 0 
0 0 0 0 6.39375e-10 0 0 0 0 
6.76095e-07 3.06584e-09 0 0 0 8.80438e-07 0 3.74991e-09 2.75588e-09 
0 0 2.8241e-10 0 0 0 0 0 0 
2.99379e-10 0 1.43231e-09 0 4.25765e-09 0 0 0 7.1723e-07 
2.07738e-09 0 0 0 0 0 0 0 0 
0 0 0 0 0 0 0 0 0 
0 0 0 0 0 0 1.07564e-10 0 0 
0 0 7.31544e-10 0 0 0 0 6.44167e-07 0 
0 1.37611e-09 0 0 0 0 0 0 0 
0 0 0 0 6.48372e-07 0 0 0 0 
0 0 0 0 9.07147e-07 8.9352e-07 0 0 0 
0 0 0 0 0 0 0 0 0 
2.68591e-09 8.84679e-09 0 0 0 1.42446e-09 0 0 1.73546e-09 
0 0 0 4.12162e-10 0 0 0 0 0 
1.55269e-09 0 0 0 0 1.2197e-08 7.00059e-07 0 0 
0 0 0 0 0 0 0 0 0 
0 0 0 0 0 0 0 0 0 
0 0 0 0 0 0 0 0 0 
0 0 0 0 0 0 0 1.47737e-09 1.70109e-09 
0 0 0 0 0 0 0 0 0 
1.96703e-10 0 0 0 2.86125e-09 0 0 2.38462e-09 0 
0 0 0 0 0 1.13334e-08 0 0 0 
0 0 0 0 0 0 0 0 0 
0 0 0 0 0 0 0 0 9.58895e-11 
0 0 0 0 0 0 0 0 0 
0 0 1.76651e-09 0 0 0 0 2.01037e-09 0 
5.01675e-09 0 7.11538e-07 0 0 0 0 0 0 
0 0 0 0 0 0 0 0 0 
0 0 0 0 0 0 0 0 0 
2.90964e-10 4.95712e-10 0 0 8.05347e-10 0 0 0 0 
1.26799e-09 0 0 0 0 0 0 0 0 
0 0 0 0 0 2.49294e-09 0 0 5.4603e-10 
0 0 0 0 1.00293e-09 0 0 0 3.47959e-09 
3.62195e-10 0 0 0 0 0 0 0 0 
0 0 0 0 0 0 1.77544e-09 0 2.97065e-09 
2.58009e-09 0 0 0 0 0 0 0 0 
0 0 0 0 0 0 6.87736e-07 1.07995e-09 1.4493e-09 
0 0 3.50728e-09 2.36508e-09 0 0 0 0 0 
0 0 0 0 0 0 0 0 0 
0 0 0 0 0 0 0 0 0 
0 0 0 0 0 0 0 0 0 
0 0 0 5.7814e-10 0 0 0 0 0 
0 0 0 9.57438e-10 0 0 0 2.04374e-09 1.42055e-09 
0 0 0 0 1.91439e-09 8.60714e-09 6.77691e-07 0 0 
1.43498e-09 0 9.969e-10 0 0 0 0 0 0 
0 0 0 0 0 0 7.76001e-10 0 0 
0 0 0 0 0 0 3.91469e-09 3.07748e-09 0 
0 0 0 6.54441e-07 0 1.92612e-09 7.56307e-10 0 0 
3.53008e-09 0 0 0 0 2.52007e-09 0 0 0 
0 0 0 0 0 0 0 0 0 
0 0 0 0 0 0 0 0 0 
0 0 0 1.58379e-09 0 2.03085e-09 0 0 0 
1.16281e-09 0 0 0 0 0 0 0 0 
0 0 0 0 0 0 6.48247e-07 0 0 
0 0 0 0 0 0 0 0 3.35698e-09 
0 0 9.67579e-10 0 0 0 0 0 0 
0 0 0 0 0 0 0 0 0 
0 0 0 0 0 2.51508e-09 6.0937e-09 6.49458e-07 0 
0 0 0 0 8.38527e-09 3.81876e-09 0 0 0 
0 1.55784e-09 0 0 0 0 0 1.30853e-09 1.65152e-09 
0 5.41496e-10 0 0 0 0 0 0 0 
0 0 0 0 0 0 0 0 0 
0 0 0 0 0 8.98847e-10 6.44413e-07 4.46525e-09 3.55355e-09 
0 0 0 0 0 0 0 0 0 
0 0 0 0 0 1.02544e-09 1.80804e-09 0 0 
0 0 0 0 0 0 9.38885e-10 1.26362e-09 0 
2.67355e-09 0 0 0 0 0 0 6.77645e-07 0 
0 6.85371e-10 0 0 0 0 0 0 0 
0 0 0 0 4.30558e-09 0 0 2.89489e-09 0 
0 0 0 7.81661e-10 0 0 0 0 0 
0 0 0 3.67736e-09 0 0 0 6.60523e-07 0 
0 0 5.58306e-10 0 0 0 0 0 0 
0 0 0 0 0 0 0 0 0 
0 0 0 0 9.36838e-10 0 0 0 2.51752e-09 
0 0 0 0 0 0 0 0 0 
0 6.92947e-10 0 0 0 0 0 0 5.74048e-10 
0 9.23359e-10 0 0 0 0 0 0 3.53873e-10 
0 0 0 0 3.84712e-10 0 2.37149e-09 0 0 
0 0 0 0 0 0 0 0 0 
0 0 0 0 0 6.48618e-07 4.3726e-09 4.4694e-09 0 
0 0 0 0 0 1.01121e-09 0 0 0 
3.47291e-09 0 6.57134e-07 3.2161e-09 0 1.91883e-09 0 1.77217e-09 0 
0 0 0 0 0 0 0 0 0 
0 0 0 0 0 0 0 0 0 
0 0 0 0 0 0 0 0 0 
1.47289e-09 6.2049e-10 0 0 0 0 0 0 0 
0 0 0 0 5.92073e-10 0 0 0 0 
0 0 1.04366e-09 0 0 0 0 8.06025e-10 0 
0 0 0 1.45814e-09 0 0 0 1.02417e-09 3.86144e-09 
0 0 0 9.8594e-07 9.13982e-07 0 0 5.40818e-10 0 
0 0 0 0 0 0 0 0 0 
1.13242e-09 9.22975e-10 0 0 0 0 7.33126e-10 0 0 
0 0 0 0 0 0 0 0 0 
0 0 0 0 0 0 0 0 0 
0 0 0 0 0 0 0 0 0 
0 0 0 0 0 0 0 0 0 
1.27817e-09 0 0 0 0 0 0 0 0 
0 0 0 0 0 0 1.32154e-09 1.0629e-09 0 
0 0 0 0 0 0 0 4.67805e-10 0 
0 0 0 0 0 0 0 0 0 
0 0 0 8.3132e-07 0 0 6.7916e-09 0 0 
4.84631e-10 4.45303e-10 0 0 0 0 0 8.30542e-10 1.01648e-09 
0 0 0 0 0 0 0 0 0 
2.95139e-09 8.10241e-10 1.94422e-09 0 0 0 1.07858e-09 0 0 
0 0 1.84455e-09 0 0 0 0 0 0 
0 0 0 0 0 0 0 0 0 
0 0 0 0 0 0 0 0 6.02266e-10 
0 0 0 0 0 0 0 0 0 
0 0 0 0 0 0 1.88222e-09 0 0 
0 0 6.11479e-10 0 0 0 4.22592e-09 6.47271e-07 0 
0 0 0 0 1.64039e-09 0 0 0 0 
6.7068e-07 0 3.5836e-09 0 0 0 0 0 0 
0 0 0 0 0 0 0 0 0 
0 0 0 0 0 0 0 0 4.70716e-09 
6.66127e-07 0 0 1.40923e-09 1.2658e-09 0 0 0 0 
1.84675e-09 6.56945e-07 0 0 0 0 0 0 0 
0 0 0 0 0 0 0 0 0 
0 0 0 0 0 0 0 0 2.18826e-10 
0 0 0 5.94156e-09 0 0 0 0 0 
0 0 0 0 0 5.8962e-09 6.78797e-07 0 0 
0 0 0 1.15023e-09 0 0 0 3.41702e-09 0 
2.69052e-09 0 0 0 0 0 0 1.86497e-09 0 
0 6.1526e-09 0 0 0 0 0 3.51828e-09 4.57849e-10 
3.32136e-11 6.28279e-10 0 0 0 0 0 0 0 
0 0 0 0 0 0 0 0 0 
0 0 0 2.69439e-09 0 0 0 0 2.08864e-09 
0 1.11771e-08 0 0 0 0 0 0 0 
0 0 0 0 0 0 0 0 0 
0 0 0 0 0 0 0 0 0 
0 0 0 6.44122e-07 0 0 0 0 0 
0 0 0 0 6.79563e-07 0 0 0 5.51958e-09 
0 0 0 5.26602e-10 0 0 0 3.55072e-09 0 
1.92225e-09 2.12839e-09 0 0 0 0 1.17208e-09 1.15448e-09 6.5644e-07 
4.68993e-09 3.36455e-09 0 0 0 0 0 1.95451e-09 0 
0 0 0 0 0 0 8.29034e-10 0 0 
0 0 0 0 0 0 0 0 1.70796e-09 
0 0 0 0 0 2.1589e-09 0 0 5.2107e-09 
0 0 2.25805e-09 0 0 0 0 0 0 
0 0 0 0 0 0 0 0 0 
0 0 0 0 0 0 0 0 0 
0 0 0 0 2.04286e-09 0 0 0 1.15063e-09 
0 0 0 0 0 0 0 0 0 
0 2.01756e-09 0 1.65054e-09 0 0 3.7947e-09 0 0 
2.25873e-09 0 0 8.49596e-10 0 0 0 0 0 
1.04051e-09 2.46185e-09 1.14645e-09 0 0 0 0 0 0 
0 0 1.51664e-09 6.68072e-07 4.79596e-09 0 0 7.29688e-10 0 
0 0 0 0 0 0 0 0 0 
0 0 0 0 0 1.53634e-09 0 2.39523e-09 0 
6.52385e-07 0 0 0 2.12407e-09 1.21384e-09 0 0 0 
0 0 0 0 0 0 0 0 0 
0 0 0 0 0 0 0 0 0 
0 0 0 9.44192e-10 0 0 0 0 9.97272e-10 
0 0 0 2.78105e-09 0 0 0 0 1.86953e-09 
2.17532e-09 2.4601e-09 7.38012e-07 3.49575e-09 0 0 0 6.63297e-07 2.24889e-09 
0 0 0 5.97525e-10 0 2.72552e-09 0 0 0 
9.43151e-10 1.96524e-09 0 2.64094e-10 0 0 0 0 0 
0 0 0 0 0 0 0 0 8.97712e-10 
0 0 0 0 0 0 0 0 0 
0 0 0 9.82979e-07 1.08411e-06 0 0 0 0 
0 0 0 0 0 0 0 0 0 
0 0 0 0 0 0 0 0 0 
0 0 0 0 0 0 0 0 0 
0 0 0 0 0 0 0 0 0 
0 7.53883e-10 0 0 0 7.08033e-07 2.08045e-09 0 1.80162e-09 
0 0 4.04863e-09 1.09033e-09 0 0 0 0 2.14822e-09 
2.10207e-09 0 0 0 0 6.7198e-07 2.00928e-09 1.13721e-09 1.60379e-09 
0 0 0 0 0 0 0 0 0 
6.69611e-10 0 0 0 0 0 3.98029e-09 0 5.84798e-10 
0 0 0 0 0 0 0 0 0 
0 0 0 0 0 9.49281e-07 0 0 4.02592e-09 
1.77248e-09 0 0 0 0 6.88878e-10 0 0 7.66588e-07 
0 0 1.49563e-09 2.53927e-11 0 0 0 0 0 
0 0 0 0 0 0 0 0 0 
0 0 0 0 0 0 0 0 0 
0 0 0 0 0 0 1.46872e-09 0 1.03772e-09 
0 0 0 0 7.43629e-07 0 2.20422e-09 0 3.09684e-09 
0 0 0 3.97847e-09 0 0 0 0 0 
2.11673e-09 0 4.58953e-11 0 0 0 0 0 0 
0 0 0 0 0 0 0 6.80446e-07 0 
0 1.82707e-09 2.32243e-10 0 0 0 0 0 0 
0 0 0 1.25908e-09 0 0 0 0 0 
2.40675e-09 3.59883e-09 0 0 0 0 0 0 0 
0 7.70103e-07 0 0 0 0 0 0 0 
0 0 0 0 0 0 0 0 0 
0 0 0 0 0 0 0 0 0 
0 0 0 0 0 6.4908e-09 6.9596e-07 3.33152e-09 0 
4.08186e-09 0 0 1.89585e-09 0 0 0 0 1.61552e-09 
0 0 3.6997e-09 6.64457e-07 1.00604e-09 1.07978e-09 0 1.62314e-09 0 
0 0 1.34872e-09 0 1.81061e-09 0 1.01644e-09 0 0 
0 0 2.29462e-09 7.63286e-07 8.26974e-09 0 0 0 0 
1.88614e-09 0 7.65596e-09 0 7.6017e-10 0 0 1.00757e-09 1.13367e-09 
0 0 1.34779e-09 0 0 0 0 4.28778e-09 1.16724e-09 
0 6.68371e-07 3.82417e-09 1.92414e-09 0 1.07164e-09 0 0 0 
0 0 0 3.17737e-09 0 0 0 0 0 
0 0 0 0 0 0 0 0 0 
0 0 0 0 0 0 0 0 0 
0 0 0 0 0 0 3.0497e-09 0 0 
0 0 0 3.91984e-10 0 0 6.16342e-10 0 2.51749e-09 
0 0 0 0 0 1.02141e-08 0 1.74369e-09 0 
6.71989e-07 0 2.38094e-09 0 0 3.02822e-09 0 0 0 
0 0 0 0 0 7.66037e-07 0 1.56524e-09 0 
0 0 0 4.38534e-09 0 0 2.59427e-09 1.40219e-09 0 
0 3.80876e-10 0 0 0 0 0 0 0 
0 2.78103e-09 0 1.46847e-09 0 0 0 0 0 
0 0 0 0 2.78345e-09 0 0 0 0 
0 0 0 0 0 0 0 0 0 
0 0 0 0 0 0 0 0 0 
0 0 0 0 0 0 0 0 0 
0 1.48797e-09 0 0 0 0 0 0 6.74484e-07 
0 0 1.92346e-09 2.17751e-09 1.1269e-09 0 0 3.94233e-09 0 
0 0 0 0 0 0 6.62063e-07 0 0 
0 0 0 1.47357e-09 0 0 0 0 0 
0 0 0 0 0 9.6385e-07 1.65259e-09 0 0 
0 0 3.09876e-09 0 6.55606e-07 0 0 0 0 
0 1.83542e-09 2.7925e-09 0 0 0 0 0 0 
0 0 4.81629e-09 0 0 0 0 9.27994e-10 0 
0 0 0 0 0 0 0 0 0 
0 0 0 0 0 0 0 0 0 
0 0 0 0 0 0 0 0 0 
0 0 0 0 0 0 0 0 0 
0 0 0 0 0 0 0 0 0 
0 7.26484e-10 0 1.29353e-09 0 0 0 0 0 
1.72742e-09 1.03325e-09 0 0 0 0 2.0196e-09 0 0 
0 0 0 0 0 0 0 0 0 
0 0 0 0 0 4.15418e-09 2.73644e-09 0 0 
0 0 0 0 0 0 1.03173e-09 0 0 
3.37032e-09 0 0 5.156e-09 8.23342e-07 0 0 0 0 
0 0 0 0 0 0 0 0 0 
0 0 0 0 0 0 0 0 0 
0 0 0 0 0 0 0 0 0 
0 9.72422e-10 0 0 0 0 0 4.78329e-10 0 
0 0 0 2.40912e-09 0 0 0 0 0 
0 0 1.66188e-09 0 0 3.46455e-09 2.72838e-09 0 2.51302e-09 
0 1.71452e-09 1.36328e-09 0 0 0 0 0 0 
0 0 0 0 0 0 0 1.00372e-06 9.75431e-09 
0 0 0 0 2.07669e-09 0 0 0 2.67313e-09 
0 5.67988e-10 0 2.533e-09 0 0 0 0 0 
0 0 3.74905e-09 0 9.82905e-07 0 0 0 0 
0 0 0 0 0 0 0 0 0 
0 0 0 0 0 0 0 0 0 
0 0 0 0 0 0 0 0 1.74944e-09 
6.72895e-09 0 1.38463e-09 0 0 0 0 0 6.51286e-07 
4.24536e-09 0 0 1.78585e-09 0 0 2.15025e-09 0 5.95859e-10 
0 0 0 0 0 1.11096e-09 0 6.72162e-07 0 
0 0 0 0 0 0 0 0 0 
7.64883e-10 0 0 0 2.73203e-09 0 0 0 9.42561e-07 
0 0 0 0 7.4828e-07 0 0 3.80612e-11 0 
0 0 0 0 0 0 0 1.65147e-09 0 
0 6.77733e-07 1.42802e-09 0 0 9.19322e-07 0 0 0 
1.11254e-09 0 0 0 0 0 0 0 0 
0 0 0 0 0 0 0 0 0 
0 0 0 0 0 0 0 0 0 
0 0 0 6.55617e-10 1.71859e-10 0 1.34465e-09 0 0 
2.83351e-09 2.00693e-09 0 1.25918e-09 0 0 0 0 0 
0 0 0 0 0 0 0 0 8.96418e-10 
0 1.32118e-09 2.58902e-09 0 0 2.36686e-09 0 0 0 
1.16156e-09 0 0 1.99609e-09 0 1.03079e-09 1.4705e-09 0 0 
6.29301e-09 0 0 9.49871e-07 0 1.41511e-09 0 3.77301e-09 0 
0 4.41316e-09 0 1.91492e-09 3.55907e-09 0 6.65622e-07 0 0 
1.74143e-09 0 3.97422e-09 1.5481e-09 3.7408e-09 0 0 0 0 
0 0 5.03895e-10 0 0 0 0 0 0 
0 0 0 0 0 0 0 0 0 
0 0 0 0 0 0 0 0 0 
0 5.50354e-09 6.77228e-07 5.55762e-09 0 5.77959e-10 0 0 0 
0 0 3.15804e-09 0 0 0 6.3732e-10 1.13731e-09 6.52222e-07 
0 1.28396e-09 0 0 0 0 0 0 0 
0 0 6.98023e-09 7.38526e-07 0 3.53927e-09 0 1.72435e-09 0 
0 1.70156e-09 0 1.58526e-09 0 0 0 0 0 
0 0 1.38543e-09 0 9.14251e-07 0 0 4.17105e-09 0 
6.97485e-07 0 0 6.86617e-07 4.67523e-09 0 0 4.68911e-09 2.91816e-09 
0 2.24262e-09 3.76765e-09 0 0 0 0 0 0 
0 6.38538e-10 0 0 0 0 0 0 0 
0 0 0 0 0 0 0 0 0 
0 0 0 0 0 0 3.25675e-10 0 0 
0 0 0 0 0 0 0 0 0 
0 0 0 0 0 0 0 0 0 
1.01013e-09 0 0 0 4.33486e-10 0 0 0 0 
1.06618e-09 0 0 0 0 0 7.66924e-07 0 6.53505e-10 
0 0 0 0 0 0 0 0 0 
0 0 0 0 0 0 0 6.51208e-10 0 
0 0 0 0 4.08966e-09 0 6.08812e-09 0 0 
0 0 0 0 0 5.18919e-09 4.60012e-09 0 0 
0 0 0 0 0 0 0 0 0 
0 0 0 0 0 0 0 0 0 
0 0 0 0 0 0 0 0 0 
0 0 0 0 0 3.19975e-09 0 7.37229e-10 0 
0 6.07325e-10 2.82349e-09 9.44021e-10 0 0 0 0 9.44974e-10 
1.3611e-10 0 0 0 0 0 0 0 0 
0 0 2.4469e-09 1.22376e-09 0 0 0 1.24646e-09 2.80016e-09 
3.01481e-09 0 0 0 6.80036e-07 0 0 0 0 
0 0 1.43018e-09 0 0 0 0 0 0 
0 0 7.3689e-10 0 0 0 0 6.23229e-09 0 
1.08057e-09 0 4.26048e-09 0 0 7.79077e-07 0 0 4.24118e-10 
0 0 0 0 0 0 0 0 0 
0 0 0 0 0 0 0 0 0 
0 0 0 0 0 0 0 0 0 
1.26108e-09 0 0 8.75987e-07 8.93347e-07 0 0 2.11628e-10 0 
0 0 0 6.06775e-09 0 0 0 0 0 
2.17958e-09 0 0 1.75859e-09 0 0 0 0 0 
0 0 0 0 0 0 0 8.78188e-07 1.23535e-09 
0 0 0 0 4.65928e-09 1.67362e-09 0 0 6.7508e-07 
0 1.30251e-09 0 0 6.60869e-07 0 0 0 0 
0 0 0 2.38635e-09 1.57868e-09 0 3.37411e-09 0 0 
0 0 6.84444e-07 0 0 0 0 7.67324e-07 0 
0 0 0 0 0 0 0 0 0 
0 0 0 0 0 0 0 0 0 
0 0 0 0 0 0 0 0 0 
0 1.50479e-09 0 0 0 0 5.72407e-09 0 0 
1.93691e-09 1.51982e-09 0 0 0 6.44675e-07 7.52781e-09 2.87025e-09 8.4737e-10 
0 6.33524e-10 0 1.75856e-09 6.51385e-07 2.82378e-09 1.85729e-09 0 0 
5.36302e-10 0 3.46346e-10 0 0 0 0 0 0 
0 0 0 0 4.85396e-09 0 0 0 9.52128e-10 
0 5.36248e-09 0 0 0 0 0 0 0 
1.73725e-09 0 6.59406e-07 0 0 0 2.38463e-09 4.63279e-10 0 
6.83866e-07 0 0 2.81294e-09 0 1.29026e-09 0 0 0 
0 0 0 0 0 0 0 0 0 
0 0 0 0 0 0 0 0 0 
0 0 0 0 0 0 0 0 0 
0 0 8.50362e-10 1.02627e-09 1.93254e-09 0 0 0 0 
0 0 1.39319e-09 4.61737e-10 0 0 0 0 1.77319e-09 
0 0 0 0 0 3.58591e-09 0 0 0 
0 8.15472e-10 0 0 0 0 0 9.9278e-07 1.1563e-06 
1.04972e-06 0 0 1.56568e-09 7.74608e-07 0 0 3.12496e-09 4.26317e-09 
0 0 3.13896e-09 0 0 0 0 0 0 
0 0 2.0866e-09 2.87631e-09 0 5.4762e-10 3.21571e-09 1.09971e-09 0 
1.34524e-09 0 0 0 0 7.03668e-10 0 1.57872e-09 7.63005e-10 
3.27128e-09 0 1.02149e-09 0 0 0 0 0 0 
0 0 0 0 0 0 0 0 0 
0 0 0 0 0 0 0 0 0 
0 0 0 0 0 5.36387e-09 0 0 6.98988e-09 
8.75152e-07 0 0 1.30995e-09 0 0 0 0 0 
0 0 0 0 0 9.92966e-10 1.51046e-09 0 0 
0 0 0 0 0 0 0 0 0 
1.90415e-09 0 0 0 0 0 5.54954e-09 7.34963e-07 0 
0 3.68034e-09 0 0 0 0 0 0 0 
0 5.04704e-10 0 0 0 0 0 0 6.62891e-07 
1.50554e-09 0 0 0 2.77783e-09 1.20786e-09 0 0 0 
0 0 7.15405e-11 0 0 0 0 0 0 
0 0 0 0 0 0 0 0 0 
0 0 0 0 0 0 0 0 0 
0 0 0 0 0 0 0 0 4.13077e-09 
0 8.64952e-07 0 0 0 0 0 1.17156e-09 0 
8.90204e-10 0 0 0 0 0 0 0 1.06736e-09 
0 0 0 0 0 0 0 0 0 
0 1.99343e-09 0 2.15113e-09 0 7.40986e-07 0 0 3.83356e-09 
0 0 0 0 3.52351e-10 0 0 0 0 
0 0 0 0 0 0 0 0 0 
0 0 0 0 0 2.08923e-09 0 0 0 
0 3.13149e-10 0 0 0 0 0 0 0 
0 0 0 0 0 0 0 0 0 
0 0 0 0 0 0 0 0 0 
0 0 0 0 1.12197e-09 0 1.14024e-09 0 0 
0 0 1.78284e-08 0 2.49802e-09 0 0 0 0 
0 0 0 0 0 0 0 0 0 
0 0 0 1.74496e-09 0 0 0 2.31941e-09 0 
4.48011e-09 7.10047e-07 2.97679e-09 0 0 0 7.02092e-09 3.6044e-09 5.348e-09 
0 0 0 0 8.65332e-07 0 0 0 0 
0 0 0 0 0 0 0 2.99643e-10 0 
1.09296e-09 0 1.56062e-09 0 0 1.92482e-09 2.3883e-09 0 1.08519e-09 
1.07962e-09 3.10925e-10 0 0 0 0 0 0 0 
0 0 0 0 0 0 0 0 0 
0 0 0 0 0 0 0 0 0 
0 0 0 0 0 0 0 0 0 
0 0 1.6604e-09 0 0 0 7.07119e-10 0 0 
0 0 0 0 0 0 0 0 0 
0 0 0 0 0 2.93087e-09 6.46934e-07 5.41837e-09 1.27512e-09 
0 3.91086e-09 0 0 0 1.88301e-09 0 2.24737e-09 0 
0 0 0 0 2.40457e-09 8.61458e-07 0 3.52546e-09 1.63118e-09 
0 0 0 0 0 0 0 0 0 
0 0 0 0 3.76021e-10 6.23086e-10 0 0 2.42391e-09 
0 0 0 0 0 0 0 0 0 
0 0 0 0 0 0 0 0 0 
0 0 0 0 0 0 0 0 0 
0 0 0 0 0 0 0 4.06789e-09 0 
0 1.43918e-09 0 1.06408e-09 0 0 0 0 1.31162e-09 
0 0 0 0 0 0 0 0 0 
0 0 0 0 0 0 0 3.25379e-09 0 
0 0 0 2.15858e-09 0 0 3.93968e-11 0 0 
0 0 0 0 0 0 0 0 0 
0 0 0 0 0 0 0 0 0 
0 0 0 0 0 0 1.62508e-09 0 6.52641e-07 
0 1.91021e-09 0 0 0 0 0 0 0 
0 0 0 0 0 0 0 0 0 
0 0 0 0 0 0 0 0 0 
0 0 0 0 0 0 0 0 6.44304e-07 
0 0 8.43631e-10 0 2.19472e-09 3.39423e-09 0 4.14614e-10 9.28088e-10 
9.99006e-10 0 0 0 0 0 0 0 0 
0 0 0 0 0 0 0 0 6.59676e-10 
0 0 0 0 8.09161e-10 0 0 5.43502e-10 0 
0 0 0 0 0 1.3048e-09 0 5.07685e-09 0 
1.8988e-09 0 0 0 4.13533e-09 0 6.517e-10 8.48418e-10 0 
0 0 0 0 0 0 0 0 3.51951e-09 
2.05788e-09 0 0 0 0 1.51051e-09 0 0 0 
0 0 0 0 0 0 0 0 0 
0 0 0 0 0 0 0 0 0 
0 0 0 0 0 0 0 0 1.98401e-09 
1.41501e-09 0 3.535e-10 0 0 0 1.02448e-09 0 0 
0 0 0 0 0 0 0 0 0 
0 0 0 0 1.09547e-09 0 0 0 9.94235e-10 
0 0 0 0 0 7.2269e-10 0 0 0 
0 0 0 0 0 0 0 0 0 
0 0 2.4064e-09 0 1.31293e-09 6.82817e-07 0 2.95128e-09 0 
0 0 0 0 0 0 0 0 0 
0 0 0 0 0 0 0 1.37562e-09 0 
0 0 0 0 0 0 0 0 0 
0 0 0 0 0 0 0 0 0 
0 0 0 0 0 0 0 0 0 
0 2.1856e-09 1.65107e-09 1.18812e-09 0 0 0 3.0977e-09 6.59473e-07 
4.64892e-09 0 0 0 0 0 0 0 0 
5.27846e-10 1.87777e-10 0 0 3.87866e-10 1.02742e-09 0 0 0 
0 0 0 0 0 0 0 4.40676e-10 0 
0 0 0 0 0 0 0 0 1.3761e-09 
0 0 2.57394e-09 7.28092e-10 0 0 0 0 3.23218e-09 
0 0 0 0 0 0 0 0 0 
1.16166e-09 0 0 0 0 2.00964e-09 0 0 0 
2.33031e-11 0 0 0 0 0 0 0 0 
0 0 0 0 0 0 0 0 0 
0 0 0 0 0 0 0 0 0 
0 6.88924e-10 0 0 9.01014e-10 0 0 0 0 
0 0 4.26271e-09 0 6.73182e-07 0 0 1.45685e-09 0 
0 0 0 0 0 2.03343e-10 0 8.48946e-10 0 
0 0 0 0 9.26572e-10 0 0 2.58832e-09 0 
0 0 0 0 0 0 0 0 0 
0 6.12206e-10 0 0 0 6.79198e-07 6.40782e-09 0 0 
4.1018e-09 0 0 0 0 0 0 0 0 
0 7.37392e-10 2.12429e-09 0 6.52582e-07 4.20491e-09 0 0 2.65013e-09 
0 1.77673e-09 0 0 0 0 0 0 0 
0 0 0 0 0 0 0 0 0 
0 0 0 0 0 0 0 0 0 
0 0 0 4.17294e-12 0 0 0 0 0 
0 0 0 0 0 0 0 0 0 
0 0 0 0 3.75262e-09 0 0 2.55237e-09 0 
0 0 2.84734e-09 0 0 0 2.73653e-09 6.4543e-07 0 
4.50468e-09 0 0 0 0 0 0 0 0 
6.47158e-07 4.53551e-09 0 1.35625e-09 0 0 0 0 0 
1.4881e-08 6.63062e-07 0 2.2151e-09 0 0 0 0 0 
0 0 1.07155e-09 0 0 0 0 0 0 
0 0 8.56551e-07 0 0 0 0 0 0 
0 0 0 0 0 0 0 0 0 
0 0 0 0 0 0 0 0 0 
0 0 0 0 0 0 0 0 0 
0 0 0 0 0 0 4.89474e-09 0 0 
1.33223e-09 1.92934e-10 0 0 7.36112e-10 0 6.70875e-07 0 3.64857e-09 
0 0 0 0 0 0 2.27721e-09 4.71934e-10 0 
0 0 5.18817e-10 0 0 0 0 0 0 
0 0 1.37168e-09 0 0 0 3.35452e-09 0 0 
0 0 0 2.6758e-09 0 0 0 0 0 
0 0 0 0 0 0 0 0 8.91513e-10 
0 2.72893e-09 0 8.56786e-07 5.16689e-09 0 0 0 0 
0 0 0 0 0 0 0 0 0 
0 0 0 0 0 0 0 0 0 
0 0 0 0 0 0 0 0 1.1985e-09 
0 1.93436e-09 0 0 0 7.66515e-09 6.95496e-07 2.74844e-09 2.7776e-09 
9.7631e-10 2.63512e-09 0 0 0 0 0 0 0 
0 0 0 8.14105e-07 0 1.14698e-09 0 1.93574e-09 0 
0 0 2.30141e-10 0 0 0 0 0 0 
2.2091e-09 2.86343e-12 0 0 0 0 0 0 0 
6.98848e-10 0 0 0 0 0 1.19164e-10 0 0 
0 0 0 0 0 0 1.89198e-09 0 0 
0 0 0 0 0 0 1.22148e-09 0 3.55976e-10 
0 0 0 0 0 0 0 0 0 
0 0 0 0 0 0 0 0 0 
0 0 0 0 0 0 3.82094e-09 1.10188e-09 4.67208e-09 
0 1.09351e-09 0 2.61966e-09 8.11447e-07 0 0 0 3.0822e-09 
5.59194e-10 0 0 0 0 0 0 0 0 