# vtk DataFile Version 5.1
vtk output
ASCII
DATASET STRUCTURED_POINTS
DIMENSIONS 100 100 1
SPACING 1 1 1
ORIGIN 0 0 0
POINT_DATA 10000
FIELD FieldData 6
feature_1 1 10000 float
0 0 0 0 0 0 0 0 0 
0 0 0 0 0 0 0 0 0 
0 0 0 0 0 0 0 0 0 
0 0 0 0 0 0 0 0 0 
0 0 0 0 0 0 0 0 0 
0 0 0 0 0 0 0 0 0 
0 0 0 0 0 0 0 0 0 
0 0 0 0 0 0 0 0 0 
0 0 0 0 0 0 0 0 0 
0 0 0 0 0 0 0 0 0 
0 0 0 0 0 0 0 0 0 
0 0 0 0 0 0 0 0 0 
0 0 0 0 0 0 0 0 0 
0 0 0 0 0 0 0 0 0 
0 0 0 0 0 0 0 0 0 
0 0 0 0 0 0 0 0 0 
0 0 0 0 0 0 0 0 0 
0 0 0 0 0 0 0 0 0 
0 0 0 0 0 0 0 0 0 
0 0 0 0 0 0 0 0 0 
0 0 0 0 0 0 0 0 0 
0 0 0 0 0 0 0 0 0 
0 0 0 0 0 0 0 0 0 
0 0 0 0 0 0 0 0 0 
0 0 0 0 0 0 0 0 0 
0 0 0 0 0 0 0 0 0 
0 0 0 0 0 0 0 0 0 
0 0 0 0 0 0 0 0 0 
0 0 0 0 0 0 0 0 0 
0 0 0 0 0 0 0 0 0 
0 0 0 0 0 0 0 0 0 
0 0 0 0 0 0 0 0 0 
0 0 0 0 0 0 0 0 0 
0 0 0 0 0 0 0 0 0 
0 0 0 0 0 0 0 0 0 
0 0 0 0 0 0 0 0 0 
0 0 0 0 0 0 0 0 0 
0 0 0 0 0 0 0 0 0 
0 0 0 0 0 0 0 0 0 
0 0 0 0 0 0 0 0 0 
0 0 0 0 0 0 0 0 0 
0 0 0 0 0 0 0 0 0 
0 0 0 0 0 0 0 0 0 
0 0 0 0 0 0 0 0 0 
0 0 0 0 0 0 0 0 0 
0 0 0 0 0 0 0 0 0 
0 0 0 0 0 0 0 0 0 
0 0 0 0 0 0 0 0 0 
0 0 0 0 0 0 0 0 0 
0 0 0 0 0 0 0 0 0 
0 0 0 0 0 0 0 0 0 
0 0 0 0 0 0 0 0 0 
0 0 0 0 0 0 0 0 0 
0 0 0 0 0 0 0 0 0 
0 0 0 0 0 0 0 0 0 
0 0 0 0 0 0 0 0 0 
0 0 0 0 0 0 0 0 0 
0 0 0 0 0 0 0 0 0 
0 0 0 0 0 0 0 0 0 
0 0 0 0 0 0 0 0 0 
0 0 0 0 0 0 0 0 0 
0 0 0 0 0 0 0 0 0 
0 0 0 0 0 0 0 0 0 
0 0 0 0 0 0 0 0 0 
0 0 0 0 0 0 0 0 0 
0 0 0 0 0 0 0 0 0 
0 0 0 0 0 0 0 0 0 
0 0 0 0 0 0 0 0 0 
0 0 0 0 0 0 0 0 0 
0 0 0 0 0 0 0 0 0 
0 0 0 0 0 0 0 0 0 
0 0 0 0 0 0 0 0 0 
0 0 0 0 0 0 0 0 0 
0 0 0 0 0 0 0 0 0 
0 0 0 0 0 0 0 0 0 
0 0 0 0 0 0 0 0 0 
0 0 0 0 0 0 0 0 0 
0 0 0 0 0 0 0 0 0 
0 0 0 0 0 0 0 0 0 
0 0 0 0 0 0 0 0 0 
0 0 0 0 0 0 0 0 0 
0 0 0 0 0 0 0 0 0 
0 0 0 0 0 0 0 0 0 
0 0 0 0 0 0 0 0 0 
0 0 0 0 0 0 0 0 0 
0 0 0 0 0 0 0 0 0 
0 0 0 0 0 0 0 0 0 
0 0 0 0 0 0 0 0 0 
0 0 0 0 0 0 0 0 0 
0 0 0 0 0 0 0 0 0 
0 0 0 0 0 0 0 0 0 
0 0 0 0 0 0 0 0 0 
0 0 0 0 0 0 0 0 0 
0 0 0 0 0 0 0 0 0 
0 0 0 0 0 0 0 0 0 
0 0 0 0 0 0 0 0 0 
0 0 0 0 0 0 0 0 0 
0 0 0 0 0 0 0 0 0 
0 0 0 0 0 0 0 0 0 
0 0 0 0 0 0 0 0 0 
0 0 0 0 0 0 0 0 0 
0 0 0 0 0 0 0 0 0 
0 0 0 0 0 0 0 0 0 
0 0 0 0 0 0 0 0 0 
0 0 0 0 0 0 0 0 0 
0 0 0 0 0 0 0 0 0 
0 0 0 0 0 0 0 0 0 
0 0 0 0 0 0 0 0 0 
0 0 0 0 0 0 0 0 0 
0 0 0 0 0 0 0 0 0 
0 0 0 0 0 0 0 0 0 
0 0 0 0 0 0 0 0 0 
0 0 0 0 0 0 0 0 0 
0 0 0 0 0 0 0 0 0 
0 0 0 0 0 0 0 0 0 
0 0 0 0 0 0 0 0 0 
0 1.61603e-09 0 0 0 5.04561e-11 0 0 0 
0 0 0 0 0 0 0 2.33233e-09 4.95801e-10 
0 0 0 0 0 0 0 0 0 
0 0 0 0 0 0 0 0 0 
0 0 0 0 0 0 0 0 0 
0 0 0 0 0 0 0 0 0 
0 0 0 0 0 0 0 0 0 
0 0 0 0 0 0 0 0 0 
0 0 0 0 0 0 0 0 0 
0 0 0 0 0 0 0 0 0 
0 0 0 0 0 0 0 0 1.15034e-09 
0 0 0 0 0 0 0 0 0 
0 0 0 0 0 0 0 0 0 
0 0 0 0 0 0 0 0 0 
0 0 0 0 0 0 0 0 0 
0 0 0 0 0 0 0 0 0 
0 0 0 0 0 0 0 0 0 
0 0 0 0 0 0 0 0 0 
0 0 0 0 0 0 0 0 0 
0 0 0 0 0 0 0 0 0 
0 0 0 0 0 0 0 0 0 
0 0 0 0 0 0 0 0 0 
0 0 0 7.92649e-07 6.01534e-09 2.5659e-09 0 1.0737e-09 0 
0 0 0 0 0 0 1.99587e-09 1.1315e-09 6.44922e-07 
1.65643e-09 0 0 0 0 0 0 0 0 
0 0 0 0 0 0 0 0 0 
0 0 0 0 0 0 0 0 0 
0 0 0 0 0 0 0 0 0 
0 0 0 0 0 0 0 0 0 
0 0 0 0 0 0 0 0 0 
0 0 0 0 0 0 0 0 0 
0 0 0 0 4.68548e-10 0 0 0 0 
0 0 0 1.30128e-09 0 0 0 0 0 
3.09488e-09 0 0 8.33329e-07 0 6.56869e-09 0 0 0 
7.8259e-10 0 0 0 0 0 0 0 0 
0 0 1.68013e-09 1.26251e-09 8.06198e-10 0 0 0 0 
0 0 0 0 0 0 0 0 0 
0 1.68528e-09 0 0 0 0 0 0 0 
0 0 0 0 0 0 0 0 0 
0 0 0 0 0 0 0 0 0 
0 0 0 0 0 0 0 0 0 
0 0 0 0 0 0 0 0 0 
0 0 0 0 4.41324e-09 6.46923e-07 0 0 0 
0 0 0 1.71349e-09 0 7.53949e-09 0 0 1.28272e-09 
0 0 0 0 0 0 0 0 1.46125e-09 
0 0 0 0 0 0 0 0 0 
0 0 0 0 0 0 0 0 0 
0 0 0 0 0 0 1.07344e-09 0 0 
6.46282e-07 1.35165e-09 0 8.59877e-10 0 0 0 0 0 
0 0 0 0 0 0 0 0 0 
0 0 0 0 0 0 0 0 0 
0 0 0 0 0 0 0 0 0 
0 0 0 0 0 0 0 0 0 
0 0 0 0 0 0 0 0 0 
0 0 0 0 1.05496e-09 3.87655e-09 0 4.3428e-09 2.65075e-09 
0 0 0 0 0 0 7.98605e-07 0 0 
9.48004e-10 0 0 0 0 0 0 0 0 
0 0 1.40158e-09 0 0 0 0 0 0 
0 0 0 0 9.20999e-10 0 0 0 0 
0 0 0 0 4.6552e-10 0 0 0 0 
0 0 0 0 0 0 0 0 0 
0 0 0 0 0 0 0 0 0 
0 0 0 0 0 0 0 0 0 
0 0 0 0 0 0 0 0 0 
0 0 0 0 0 0 1.96231e-09 0 0 
7.12633e-10 0 0 3.80911e-10 0 0 2.4168e-09 0 0 
0 0 8.42108e-10 0 0 7.41769e-07 1.20354e-08 0 0 
0 0 6.89645e-07 0 8.38389e-10 9.18499e-10 0 0 0 
0 0 0 0 1.51592e-09 0 1.89502e-09 0 1.37817e-09 
0 2.11475e-09 0 0 0 0 0 0 0 
0 0 0 4.3712e-10 0 0 0 0 0 
0 0 0 0 0 0 0 0 0 
0 0 0 0 0 0 0 0 0 
0 0 0 0 0 0 0 0 0 
0 0 0 0 0 0 0 0 0 
0 0 0 0 0 0 1.17491e-09 5.02598e-09 0 
2.01973e-09 0 0 0 0 0 0 0 2.00351e-09 
1.66976e-09 0 0 0 1.24646e-09 1.71406e-09 0 0 2.24212e-09 
0 0 0 0 0 0 6.04501e-10 0 0 
0 0 0 0 0 0 0 7.18986e-07 0 
7.19165e-07 7.90928e-09 0 0 0 0 0 0 6.6742e-07 
0 0 0 0 0 0 0 0 0 
0 0 0 0 0 0 0 0 0 
0 0 0 0 0 0 0 0 0 
0 0 0 0 0 0 0 0 0 
0 0 0 0 0 0 0 0 0 
0 0 0 0 0 3.50431e-09 0 1.43657e-09 0 
0 0 0 0 0 0 0 0 1.79353e-09 
0 0 0 0 0 0 0 0 0 
0 0 0 0 0 0 1.73576e-09 0 0 
0 0 0 0 0 0 0 0 0 
0 0 2.17879e-09 0 0 0 0 1.05075e-09 0 
0 0 2.05679e-09 1.99836e-09 1.33246e-09 0 0 0 0 
0 0 0 0 0 0 0 0 0 
0 0 0 0 0 0 0 0 0 
0 0 0 0 0 0 0 0 0 
0 0 0 0 0 0 0 0 0 
0 0 0 0 0 0 0 1.71286e-09 1.61766e-09 
3.79642e-09 6.49563e-07 0 0 0 0 0 0 0 
0 0 0 0 6.50031e-07 0 0 0 0 
0 8.98364e-07 9.15236e-07 0 1.88949e-09 7.20304e-07 0 0 0 
0 0 0 0 0 0 0 1.90183e-09 0 
0 1.57157e-09 0 0 0 1.35148e-09 0 1.72374e-09 0 
1.89539e-09 0 7.82653e-10 1.36049e-09 1.1108e-09 0 0 0 0 
0 0 0 0 0 0 0 0 0 
0 0 0 0 0 0 0 0 0 
0 0 0 0 0 0 0 0 0 
0 0 0 0 0 0 0 0 0 
0 0 0 6.6482e-10 1.90391e-09 4.21119e-09 6.46986e-07 5.37505e-09 0 
0 2.6413e-09 3.63382e-09 0 0 0 0 0 1.96289e-11 
0 0 0 0 0 0 0 0 1.50648e-09 
0 0 0 0 0 0 1.71768e-09 0 1.12838e-09 
0 0 1.12131e-09 0 0 0 0 0 0 
0 0 0 0 0 0 1.49982e-10 0 0 
0 6.68568e-07 1.00449e-09 0 0 0 0 0 0 
0 0 0 0 0 0 0 1.60321e-09 0 
0 0 0 0 0 0 0 0 0 
0 0 0 0 0 0 0 0 0 
0 0 0 0 0 0 0 0 0 
0 0 0 0 0 1.03175e-09 0 0 5.10983e-09 
2.02352e-09 0 1.46389e-09 0 1.63058e-09 0 0 0 0 
0 7.79655e-10 0 0 0 0 0 0 0 
1.41424e-09 0 0 0 0 0 0 3.05557e-09 0 
1.48283e-09 0 0 0 0 0 0 0 0 
0 0 6.70581e-10 0 0 1.80803e-09 1.28891e-10 0 0 
0 0 0 0 6.68139e-10 0 0 0 1.85107e-09 
0 0 0 0 0 0 1.27663e-09 5.0136e-09 0 
0 0 0 0 0 0 0 0 0 
0 0 0 0 0 0 0 0 0 
0 0 0 0 0 0 0 0 0 
0 0 0 0 0 0 0 0 0 
0 0 0 0 0 0 0 0 0 
0 0 0 0 0 0 0 0 0 
0 0 0 0 0 1.97241e-09 0 0 2.63337e-10 
0 5.14595e-10 0 0 0 0 0 0 0 
0 0 0 0 0 0 0 4.38789e-09 0 
0 0 0 0 0 1.58451e-09 0 0 0 
0 0 0 0 0 0 0 0 0 
7.18963e-07 0 1.85193e-09 1.54824e-09 0 0 0 0 0 
0 0 0 0 0 0 0 0 0 
0 0 0 0 0 0 0 0 0 
0 0 0 0 0 1.3892e-09 0 0 0 
0 0 0 0 0 0 0 1.66411e-09 0 
0 0 7.27329e-10 3.2322e-10 0 0 8.51412e-10 0 0 
2.18955e-10 0 0 0 1.6533e-09 0 0 8.76626e-07 8.73931e-07 
0 0 0 0 0 0 0 0 5.28083e-10 
0 0 0 0 0 0 0 0 6.46634e-07 
0 0 0 2.1946e-10 0 0 0 0 0 
0 6.5492e-07 0 0 0 0 0 0 2.89272e-09 
5.83231e-09 0 0 0 0 0 0 0 0 
0 0 0 0 0 0 0 0 0 
0 0 0 0 0 0 0 0 0 
7.18446e-10 0 0 0 0 0 0 1.0491e-09 0 
0 0 0 0 0 0 0 0 0 
1.16209e-09 0 0 0 0 6.87393e-10 0 0 0 
0 0 0 0 0 1.71929e-09 0 0 3.40285e-09 
0 0 2.17415e-09 1.31265e-10 0 0 6.45958e-07 1.85892e-09 0 
9.74804e-10 0 0 0 0 0 0 2.81913e-09 0 
0 0 0 0 0 0 4.64621e-09 0 0 
0 0 1.34184e-09 1.75922e-10 3.92724e-09 0 1.1438e-09 0 1.16103e-09 
1.58607e-09 0 7.25692e-07 0 0 0 0 0 0 
0 0 0 0 0 0 0 0 0 
0 0 0 0 0 0 0 0 0 
0 0 0 9.65656e-10 1.1136e-09 1.69452e-10 0 0 0 
0 0 0 0 0 0 0 0 0 
0 0 3.0229e-09 0 8.22348e-10 0 9.72608e-10 9.85907e-11 0 
0 0 0 0 0 0 0 1.9286e-09 0 
4.33328e-09 0 0 0 2.4549e-09 0 0 2.61536e-09 8.35206e-10 
0 0 1.19699e-09 0 0 0 0 5.8302e-10 0 
0 0 1.52575e-09 9.18252e-10 0 0 8.94298e-09 6.54715e-07 4.68324e-09 
0 0 0 0 0 0 0 5.17268e-10 0 
0 0 3.80388e-09 0 0 4.40355e-10 0 0 0 
0 0 0 0 0 0 0 0 0 
0 0 0 0 0 0 0 0 0 
0 0 0 0 0 0 0 0 0 
7.1877e-07 0 0 0 0 0 0 0 0 
0 0 4.2615e-09 6.47059e-07 0 0 1.65435e-09 3.74448e-09 6.98923e-07 
0 2.38035e-09 1.58661e-09 0 0 0 0 1.20331e-09 0 
0 0 0 0 1.45427e-09 0 0 0 0 
0 0 0 0 0 0 0 0 6.13722e-10 
0 0 1.13382e-09 0 1.81635e-09 0 0 0 3.06639e-09 
0 0 2.87438e-09 0 0 0 0 1.1718e-09 0 
0 0 0 2.81527e-09 0 0 2.50201e-09 0 0 
0 0 0 0 0 0 0 0 0 
0 0 0 0 0 0 0 0 0 
0 0 0 6.59908e-07 0 0 0 0 7.75539e-07 
0 0 0 0 0 0 0 0 0 
0 0 0 0 0 0 0 0 0 
0 0 7.0623e-07 0 0 4.0229e-09 0 0 0 
0 9.24116e-10 2.83839e-09 0 0 7.18082e-10 0 0 0 
1.2293e-09 0 0 0 0 0 0 0 0 
0 1.09348e-09 0 0 0 0 0 0 0 
0 0 0 0 0 6.56254e-07 0 0 1.42912e-09 
0 5.07821e-10 0 0 5.73296e-10 8.85232e-10 0 1.52384e-09 0 
0 0 0 0 0 0 0 0 0 
0 0 0 0 0 0 0 0 0 
0 0 1.43579e-09 4.07892e-09 0 0 0 0 0 
0 0 3.51323e-09 2.33516e-09 0 0 1.11531e-09 0 0 
0 0 0 0 1.10338e-09 0 0 0 0 
1.59709e-09 0 0 0 0 0 2.17179e-09 6.03433e-09 3.60406e-09 
0 5.91123e-09 7.0428e-07 0 0 2.40589e-10 0 0 0 
0 0 0 0 3.79159e-09 2.93995e-09 4.79002e-09 1.64825e-09 0 
0 0 4.7492e-10 0 0 0 1.99936e-09 0 0 
0 0 2.57485e-09 0 0 0 0 0 0 
0 0 0 0 0 6.73345e-07 0 0 0 
1.95489e-10 0 0 0 0 0 0 0 0 
0 0 0 0 0 0 0 0 0 
0 0 0 0 0 0 1.34523e-09 0 7.11483e-07 
9.19679e-09 1.10999e-09 7.43704e-07 4.86817e-09 2.59193e-09 0 0 0 0 
0 7.95402e-10 0 0 0 0 0 0 0 
0 1.14553e-09 1.41515e-09 0 0 0 0 0 0 
0 0 0 7.22576e-09 0 0 0 0 0 
0 0 0 0 1.31365e-09 0 6.59236e-07 4.61326e-09 2.44919e-09 
0 0 0 0 0 0 6.50324e-07 2.29379e-09 1.6313e-09 
0 0 6.80318e-09 3.65562e-09 2.63908e-09 0 0 0 9.28394e-10 
0 0 0 0 0 0 0 0 0 
0 0 0 0 0 0 0 0 0 
0 0 0 0 0 0 0 0 0 
0 0 0 0 0 0 2.09182e-09 2.15573e-09 0 
0 0 0 0 0 5.92524e-10 1.3767e-09 0 2.83851e-09 
0 0 2.79991e-09 1.60293e-09 0 0 0 0 0 
0 0 3.62263e-10 0 0 0 0 0 0 
7.02462e-07 0 0 7.23914e-07 4.66374e-09 0 0 0 0 
0 0 0 0 0 0 0 2.6103e-09 0 
0 0 0 1.68779e-09 1.36417e-09 0 4.52495e-09 0 3.67752e-09 
0 0 4.09053e-09 6.506e-07 0 0 1.14405e-09 0 1.02743e-09 
0 0 0 0 1.99728e-09 0 0 0 0 
0 0 4.92949e-10 0 0 0 0 0 0 
0 0 0 0 0 0 0 0 0 
0 0 0 0 0 0 0 0 5.437e-10 
0 0 0 0 0 0 2.0179e-09 3.2959e-09 0 
0 8.71963e-07 0 0 0 0 0 0 0 
0 0 0 0 0 0 0 7.20979e-07 0 
5.61714e-09 0 0 0 0 0 0 0 0 
0 0 0 1.80525e-10 1.63951e-09 2.52775e-09 2.15869e-09 3.71254e-09 0 
0 0 0 0 0 0 0 0 0 
0 0 0 0 0 0 0 3.37247e-11 0 
0 0 0 0 0 0 0 6.76053e-07 4.54875e-09 
0 0 0 0 0 0 0 0 0 
0 0 0 0 0 0 0 0 0 
0 0 0 0 0 0 0 0 1.79038e-10 
0 1.32303e-09 1.16727e-09 0 1.67403e-09 0 0 2.35239e-10 0 
3.91951e-09 0 8.85199e-07 0 0 0 0 0 0 
0 0 0 0 0 2.80873e-09 0 5.70911e-09 0 
0 0 3.31985e-09 2.91477e-09 0 0 0 0 1.31731e-09 
0 0 0 0 0 0 0 5.20753e-07 6.48412e-10 
0 3.27274e-09 0 0 0 0 2.39422e-09 3.53306e-09 0 
0 0 1.21851e-09 1.85497e-09 0 0 0 0 0 
0 0 0 0 0 0 1.97739e-09 0 0 
0 0 0 0 0 0 0 0 0 
0 0 0 0 0 0 0 0 2.08009e-11 
0 0 0 0 0 0 0 0 0 
0 0 0 0 0 0 7.64218e-10 0 0 
0 0 0 0 0 5.60873e-09 6.84723e-07 4.56678e-09 0 
0 0 0 0 7.80551e-10 0 0 0 0 
0 0 0 0 0 0 0 0 0 
0 0 0 0 0 0 0 0 5.65525e-09 
0 0 0 0 7.48602e-07 0 8.04995e-07 0 0 
0 0 0 0 0 0 0 0 0 
0 0 0 0 0 3.72254e-09 6.55875e-07 0 0 
0 0 0 0 0 0 0 0 0 
0 0 0 0 0 0 0 0 0 
0 0 0 0 0 0 0 0 0 
0 0 0 0 0 0 0 0 0 
2.37609e-09 1.39974e-09 0 0 0 0 1.53396e-09 4.38224e-09 7.50452e-10 
0 1.72359e-09 0 0 0 0 0 0 0 
8.99393e-07 9.13617e-07 0 4.09426e-09 3.47938e-10 4.81019e-11 0 0 4.61558e-09 
0 0 0 0 0 0 0 0 0 
7.23579e-10 1.36869e-09 1.88187e-09 0 0 0 0 3.70948e-09 0 
1.94836e-09 0 0 0 0 9.39076e-10 8.25862e-10 0 0 
0 0 0 0 0 0 2.21917e-09 2.45634e-09 0 
2.68367e-09 0 0 0 0 0 0 0 0 
0 0 0 0 0 0 0 0 0 
0 0 0 0 0 0 0 0 0 
0 0 0 0 0 0 0 0 0 
0 0 0 2.42467e-09 0 0 0 0 0 
0 8.57638e-10 0 0 0 0 0 0 2.99038e-09 
0 0 0 0 4.37189e-09 0 0 0 3.49899e-09 
0 0 2.14744e-09 0 3.79815e-09 0 0 0 0 
0 2.74479e-09 0 0 0 0 0 0 3.44595e-09 
8.77648e-07 0 0 7.35686e-07 0 1.28352e-09 1.65736e-09 0 0 
0 0 0 0 0 0 0 0 0 
0 0 0 0 0 0 0 0 0 
0 0 0 0 0 0 0 0 0 
0 0 0 0 0 0 0 0 0 
0 0 0 0 0 0 0 0 0 
0 0 0 3.55571e-09 7.14366e-07 0 9.17853e-09 0 0 
4.18142e-09 3.41328e-09 0 2.14506e-09 0 0 0 0 1.03012e-09 
0 0 0 0 0 0 0 0 0 
0 7.62162e-07 0 0 0 6.58846e-07 0 1.0956e-09 6.91794e-10 
0 8.00794e-10 0 0 1.65001e-09 0 0 0 0 
8.32071e-07 0 0 0 2.87277e-09 0 0 0 0 
0 0 0 0 9.73721e-13 0 0 0 0 
0 0 0 6.16705e-10 4.57455e-10 0 0 0 0 
0 0 0 0 0 0 0 0 0 
0 0 0 0 0 0 0 0 0 
0 0 0 0 0 0 0 0 0 
0 0 7.76678e-10 0 0 0 0 7.79172e-07 4.50995e-09 
0 0 0 6.54244e-07 0 0 1.59834e-09 4.79516e-10 0 
0 1.97951e-09 0 0 7.1258e-07 0 0 0 0 
0 0 1.00926e-08 0 0 0 4.27018e-09 0 1.36878e-09 
0 0 0 0 0 0 6.22495e-10 0 0 
0 0 1.12032e-09 0 7.48216e-07 7.03425e-09 0 0 0 
0 0 0 0 0 0 0 0 0 
0 0 0 0 0 0 0 0 0 
0 0 0 0 0 0 0 0 0 
0 0 0 0 0 0 0 0 0 
0 0 0 0 0 0 0 0 0 
0 0 0 0 0 0 0 0 5.38556e-09 
3.51479e-09 0 0 3.95444e-09 4.58334e-09 0 1.58884e-09 0 0 
0 0 0 0 0 0 0 1.07037e-09 8.46131e-09 
0 8.81066e-07 0 8.21334e-07 2.47342e-09 4.00659e-09 0 0 3.68427e-09 
0 0 0 0 0 0 0 0 0 
0 0 2.27572e-09 0 0 0 0 0 0 
4.76066e-10 0 0 0 0 0 0 0 0 
0 0 0 0 0 0 0 0 0 
0 0 0 0 0 0 0 0 0 
0 0 0 0 0 0 0 0 0 
0 0 0 0 0 0 7.77859e-10 0 0 
0 0 0 0 0 0 1.75958e-09 2.45297e-09 1.0225e-08 
7.33313e-07 0 0 1.33736e-09 0 0 0 1.42026e-09 0 
0 0 0 0 0 0 0 8.9658e-09 0 
0 8.59874e-07 0 0 0 0 0 0 0 
0 0 0 0 0 6.67483e-07 0 3.45905e-09 0 
0 1.49749e-09 0 0 4.25962e-09 0 0 0 0 
0 0 0 0 0 0 0 0 0 
0 0 6.00357e-10 0 0 0 0 0 0 
0 0 0 0 0 0 0 0 0 
0 0 0 0 0 0 0 0 0 
0 0 0 0 0 0 0 6.44173e-07 0 
0 0 0 0 0 0 0 0 0 
0 0 2.06582e-09 0 2.16067e-09 0 2.41409e-09 1.54198e-09 0 
0 0 0 7.1802e-10 0 0 0 0 0 
7.5481e-07 0 0 0 0 0 0 0 0 
0 0 0 1.28037e-09 0 0 5.07456e-09 0 3.06234e-09 
0 0 0 0 0 0 2.38732e-09 0 1.05097e-09 
1.15923e-09 0 0 0 0 0 0 0 0 
0 0 0 0 0 0 0 0 0 
5.30094e-10 0 0 0 0 0 0 0 0 
0 0 0 0 0 0 0 0 0 
0 0 0 0 0 0 2.39922e-09 2.0308e-09 0 
0 0 0 0 0 0 0 0 0 
0 3.14441e-09 0 0 0 0 0 0 0 
0 0 0 0 5.85783e-10 0 0 3.18017e-09 0 
0 0 0 0 0 0 6.54001e-10 9.73494e-10 0 
0 0 0 0 0 0 0 0 0 
4.72042e-09 0 0 8.4621e-07 0 8.41995e-07 8.95774e-09 0 7.08717e-10 
0 0 0 0 0 0 0 0 0 
0 0 0 0 3.53244e-09 0 0 0 0 
2.28212e-09 1.04438e-09 0 0 0 0 0 0 0 
0 0 0 0 0 0 0 0 0 
0 0 0 0 0 0 0 0 0 
0 0 0 0 1.43532e-09 3.09853e-09 0 0 0 
0 0 0 0 0 0 0 0 0 
0 0 0 0 2.38887e-10 0 0 0 0 
1.60781e-09 0 5.16002e-09 0 0 4.05061e-09 0 0 0 
0 0 0 0 6.32694e-10 0 0 0 0 
6.7608e-07 3.03093e-09 0 0 0 8.80346e-07 0 3.74255e-09 2.65045e-09 
0 0 2.49056e-10 0 0 0 0 0 0 
3.77173e-10 0 1.39492e-09 0 4.4145e-09 0 0 0 7.17254e-07 
2.2184e-09 0 0 0 0 0 0 0 0 
0 0 0 0 0 0 0 0 0 
0 0 0 0 0 0 1.17415e-10 0 0 
0 0 7.9407e-10 0 0 0 0 6.44209e-07 0 
0 1.38832e-09 0 0 0 0 0 0 0 
0 0 0 0 6.48365e-07 0 0 0 0 
0 0 0 0 9.07081e-07 8.93521e-07 0 0 0 
0 0 0 0 0 0 0 0 0 
2.57422e-09 8.78839e-09 0 0 0 1.34194e-09 0 0 1.74338e-09 
0 0 0 3.32313e-10 0 0 0 0 0 
1.56295e-09 0 0 0 0 1.23261e-08 7.00029e-07 0 0 
0 0 0 0 0 0 0 0 0 
0 0 0 0 0 0 0 0 0 
0 0 0 0 0 0 0 0 0 
0 0 0 0 0 0 0 1.43656e-09 1.76795e-09 
0 0 0 0 0 0 0 0 0 
2.01076e-10 0 0 0 2.97805e-09 0 0 2.37459e-09 0 
0 0 0 0 0 1.1363e-08 0 0 0 
0 0 0 0 0 0 0 0 0 
0 0 0 0 0 0 0 0 5.79264e-11 
0 0 0 0 0 0 0 0 0 
0 0 1.69206e-09 0 0 0 0 2.04875e-09 0 
5.06713e-09 0 7.11513e-07 0 0 0 0 0 0 
0 0 0 0 0 0 0 0 0 
0 0 0 0 0 0 0 0 0 
2.74034e-10 4.31476e-10 0 0 8.28597e-10 0 0 0 0 
1.24395e-09 0 0 0 0 0 0 0 0 
0 0 0 0 0 2.4973e-09 0 0 5.9916e-10 
0 0 0 0 1.05765e-09 0 0 0 3.55171e-09 
2.63163e-10 0 0 0 0 0 0 0 0 
0 0 0 0 0 0 1.78508e-09 0 2.96101e-09 
2.55835e-09 0 0 0 0 0 0 0 0 
0 0 0 0 0 0 6.8773e-07 1.15289e-09 1.42332e-09 
0 0 3.4438e-09 2.39056e-09 0 0 0 0 0 
0 0 0 0 0 0 0 0 0 
0 0 0 0 0 0 0 0 0 
0 0 0 0 0 0 0 0 0 
0 0 0 5.1426e-10 0 0 0 0 0 
0 0 0 9.35337e-10 0 0 0 1.96707e-09 1.33878e-09 
0 0 0 0 1.98177e-09 8.62607e-09 6.77688e-07 0 0 
1.48083e-09 0 9.34071e-10 0 0 0 0 0 0 
0 0 0 0 0 0 9.10052e-10 0 0 
0 0 0 0 0 0 3.95024e-09 3.14719e-09 0 
0 0 0 6.54368e-07 0 1.92006e-09 7.4718e-10 0 0 
3.61049e-09 0 0 0 0 2.52396e-09 0 0 0 
0 0 0 0 0 0 0 0 0 
0 0 0 0 0 0 0 0 0 
0 0 0 1.52332e-09 0 2.01247e-09 0 0 0 
1.24827e-09 0 0 0 0 0 0 0 0 
0 0 0 0 0 0 6.48182e-07 0 0 
0 0 0 0 0 0 0 0 3.43573e-09 
0 0 1.04884e-09 0 0 0 0 0 0 
0 0 0 0 0 0 0 0 0 
0 0 0 0 0 2.57336e-09 6.1548e-09 6.49537e-07 0 
0 0 0 0 8.42693e-09 3.88941e-09 0 0 0 
0 1.52992e-09 0 0 0 0 0 1.12435e-09 1.59486e-09 
0 4.44403e-10 0 0 0 0 0 0 0 
0 0 0 0 0 0 0 0 0 
0 0 0 0 0 8.36557e-10 6.4445e-07 4.59848e-09 3.60417e-09 
0 0 0 0 0 0 0 0 0 
0 0 0 0 0 9.49523e-10 1.78885e-09 0 0 
0 0 0 0 0 0 8.93405e-10 1.24559e-09 0 
2.69357e-09 0 0 0 0 0 0 6.77685e-07 0 
0 8.09074e-10 0 0 0 0 0 0 0 
0 0 0 0 4.19591e-09 0 0 2.92493e-09 0 
0 0 0 7.91018e-10 0 0 0 0 0 
0 0 0 3.63975e-09 0 0 0 6.60472e-07 0 
0 0 5.64201e-10 0 0 0 0 0 0 
0 0 0 0 0 0 0 0 0 
0 0 0 0 1.02267e-09 0 0 0 2.43821e-09 
0 0 0 0 0 0 0 0 0 
0 6.67837e-10 0 0 0 0 0 0 5.63195e-10 
0 8.36731e-10 0 0 0 0 0 0 3.69889e-10 
0 0 0 0 3.79927e-10 0 2.49371e-09 0 0 
0 0 0 0 0 0 0 0 0 
0 0 0 0 0 6.48658e-07 4.40516e-09 4.46223e-09 0 
0 0 0 0 0 1.09653e-09 0 0 0 
3.38935e-09 0 6.5719e-07 3.19087e-09 0 1.87325e-09 0 1.79866e-09 0 
0 0 0 0 0 0 0 0 0 
0 0 0 0 0 0 0 0 0 
0 0 0 0 0 0 0 0 0 
1.53796e-09 5.69734e-10 0 0 0 0 0 0 0 
0 0 0 0 6.18808e-10 0 0 0 0 
0 0 1.13536e-09 0 0 0 0 7.64182e-10 0 
0 0 0 1.49548e-09 0 0 0 9.72834e-10 3.80479e-09 
0 0 0 9.85913e-07 9.13969e-07 0 0 4.70715e-10 0 
0 0 0 0 0 0 0 0 0 
1.01268e-09 8.63764e-10 0 0 0 0 7.63757e-10 0 0 
0 0 0 0 0 0 0 0 0 
0 0 0 0 0 0 0 0 0 
0 0 0 0 0 0 0 0 0 
0 0 0 0 0 0 0 0 0 
1.27003e-09 0 0 0 0 0 0 0 0 
0 0 0 0 0 0 1.20779e-09 1.18189e-09 0 
0 0 0 0 0 0 0 4.41136e-10 0 
0 0 0 0 0 0 0 0 0 
0 0 0 8.31286e-07 0 0 6.74958e-09 0 0 
4.74579e-10 4.68865e-10 0 0 0 0 0 8.16324e-10 9.72734e-10 
0 0 0 0 0 0 0 0 0 
2.93969e-09 8.2215e-10 1.86034e-09 0 0 0 1.09212e-09 0 0 
0 0 1.85297e-09 0 0 0 0 0 0 
0 0 0 0 0 0 0 0 0 
0 0 0 0 0 0 0 0 5.79002e-10 
0 0 0 0 0 0 0 0 0 
0 0 0 0 0 0 1.93958e-09 0 0 
0 0 5.45445e-10 0 0 0 4.19808e-09 6.47283e-07 0 
0 0 0 0 1.62498e-09 0 0 0 0 
6.70673e-07 0 3.47984e-09 0 0 0 0 0 0 
0 0 0 0 0 0 0 0 0 
0 0 0 0 0 0 0 0 4.63432e-09 
6.66118e-07 0 0 1.48344e-09 1.25268e-09 0 0 0 0 
1.78333e-09 6.5687e-07 0 0 0 0 0 0 0 
0 0 0 0 0 0 0 0 0 
0 0 0 0 0 0 0 0 2.21988e-10 
0 0 0 5.88646e-09 0 0 0 0 0 
0 0 0 0 0 5.90559e-09 6.78936e-07 0 0 
0 0 0 1.19922e-09 0 0 0 3.39882e-09 0 
2.69791e-09 0 0 0 0 0 0 1.81329e-09 0 
0 6.21014e-09 0 0 0 0 0 3.58392e-09 3.56285e-10 
0 5.78855e-10 0 0 0 0 0 0 0 
0 0 0 0 0 0 0 0 0 
0 0 0 2.53814e-09 0 0 0 0 2.18279e-09 
0 1.12832e-08 0 0 0 0 0 0 0 
0 0 0 0 0 0 0 0 0 
0 0 0 0 0 0 0 0 0 
0 0 0 6.4409e-07 0 0 0 0 0 
0 0 0 0 6.79511e-07 0 0 0 5.56769e-09 
0 0 0 5.54955e-10 0 0 0 3.46228e-09 0 
1.92477e-09 2.11605e-09 0 0 0 0 1.09678e-09 1.16534e-09 6.56514e-07 
4.63755e-09 3.43197e-09 0 0 0 0 0 1.96849e-09 0 
0 0 0 0 0 0 8.53768e-10 0 0 
0 0 0 0 0 0 0 0 1.65957e-09 
0 0 0 0 0 2.07978e-09 0 0 5.26726e-09 
0 0 2.27725e-09 0 0 0 0 0 0 
0 0 0 0 0 0 0 0 0 
0 0 0 0 0 0 0 0 0 
0 0 0 0 2.13883e-09 0 0 0 1.2465e-09 
0 0 0 0 0 0 0 0 0 
0 1.95584e-09 0 1.66901e-09 0 0 3.76203e-09 0 0 
2.15237e-09 0 0 9.63683e-10 0 0 0 0 0 
1.10839e-09 2.46005e-09 1.20184e-09 0 0 0 0 0 0 
0 0 1.51216e-09 6.68035e-07 4.84333e-09 0 0 8.17344e-10 0 
0 0 0 0 0 0 0 0 0 
0 0 0 0 0 1.54082e-09 0 2.32541e-09 0 
6.52372e-07 0 0 0 2.22005e-09 1.13421e-09 0 0 0 
0 0 0 0 0 0 0 0 0 
0 0 0 0 0 0 0 0 0 
0 0 0 1.02971e-09 0 0 0 0 9.15895e-10 
0 0 0 2.73144e-09 0 0 0 0 1.91503e-09 
2.26476e-09 2.48858e-09 7.37938e-07 3.54549e-09 0 0 0 6.63266e-07 2.35887e-09 
0 0 0 6.12159e-10 0 2.77582e-09 0 0 0 
8.68322e-10 1.98488e-09 0 2.17164e-10 0 0 0 0 0 
0 0 0 0 0 0 0 0 8.01966e-10 
0 0 0 0 0 0 0 0 0 
0 0 0 9.83083e-07 1.08414e-06 0 0 0 0 
0 0 0 0 0 0 0 0 0 
0 0 0 0 0 0 0 0 0 
0 0 0 0 0 0 0 0 0 
0 0 0 0 0 0 0 0 0 
0 6.78715e-10 0 0 0 7.08062e-07 2.15005e-09 0 1.82097e-09 
0 0 4.02686e-09 1.0692e-09 0 0 0 0 2.22874e-09 
2.14795e-09 0 0 0 0 6.71953e-07 2.01438e-09 1.19456e-09 1.63259e-09 
0 0 0 0 0 0 0 0 0 
5.86884e-10 0 0 0 0 0 3.99081e-09 0 5.93362e-10 
0 0 0 0 0 0 0 0 0 
0 0 0 0 0 9.49409e-07 0 0 3.97228e-09 
1.74569e-09 0 0 0 0 6.4272e-10 0 0 7.66629e-07 
0 0 1.52958e-09 0 0 0 0 0 0 
0 0 0 0 0 0 0 0 0 
0 0 0 0 0 0 0 0 0 
0 0 0 0 0 0 1.44655e-09 0 1.11456e-09 
0 0 0 0 7.43723e-07 0 2.26971e-09 0 3.07209e-09 
0 0 0 4.00463e-09 0 0 0 0 0 
2.13847e-09 0 9.10882e-11 0 0 0 0 0 0 
0 0 0 0 0 0 0 6.80409e-07 0 
0 1.8144e-09 3.83576e-10 0 0 0 0 0 0 
0 0 0 1.17923e-09 0 0 0 0 0 
2.22471e-09 3.50927e-09 0 0 0 0 0 0 0 
0 7.70186e-07 0 0 0 0 0 0 0 
0 0 0 0 0 0 0 0 0 
0 0 0 0 0 0 0 0 0 
0 0 0 0 0 6.58661e-09 6.95921e-07 3.29548e-09 0 
4.13492e-09 0 0 1.9255e-09 0 0 0 0 1.64895e-09 
0 0 3.655e-09 6.64534e-07 9.12824e-10 1.02996e-09 0 1.70719e-09 0 
0 0 1.25921e-09 0 1.74859e-09 0 1.02563e-09 0 0 
0 0 2.28194e-09 7.6321e-07 8.15704e-09 0 0 0 0 
1.9449e-09 0 7.69332e-09 0 7.1152e-10 0 0 1.04666e-09 1.11126e-09 
0 0 1.24071e-09 0 0 0 0 4.36626e-09 1.2302e-09 
0 6.6839e-07 3.82899e-09 1.94266e-09 0 9.58127e-10 0 0 0 
0 0 0 3.17956e-09 0 0 0 0 0 
0 0 0 0 0 0 0 0 0 
0 0 0 0 0 0 0 0 0 
0 0 0 0 0 0 3.01172e-09 0 0 
0 0 0 3.56814e-10 0 0 7.172e-10 0 2.48058e-09 
0 0 0 0 0 1.02245e-08 0 1.71717e-09 0 
6.72108e-07 0 2.42146e-09 0 0 3.08754e-09 0 0 0 
0 0 0 0 0 7.66145e-07 0 1.60375e-09 0 
0 0 0 4.45097e-09 0 0 2.59971e-09 1.37835e-09 0 
0 3.63937e-10 0 0 0 0 0 0 0 
0 2.71373e-09 0 1.46294e-09 0 0 0 0 0 
0 0 0 0 2.72559e-09 0 0 0 0 
0 0 0 0 0 0 0 0 0 
0 0 0 0 0 0 0 0 0 
0 0 0 0 0 0 0 0 0 
0 1.42659e-09 0 0 0 0 0 0 6.74627e-07 
0 0 1.96794e-09 2.05629e-09 1.11553e-09 0 0 4.00801e-09 0 
0 0 0 0 0 0 6.62066e-07 0 0 
0 0 0 1.46065e-09 0 0 0 0 0 
0 0 0 0 0 9.63851e-07 1.68543e-09 0 0 
0 0 3.0023e-09 0 6.5558e-07 0 0 0 0 
0 1.83189e-09 2.7253e-09 0 0 0 0 0 0 
0 0 4.77817e-09 0 0 0 0 8.31152e-10 0 
0 0 0 0 0 0 0 0 0 
0 0 0 0 0 0 0 0 0 
0 0 0 0 0 0 0 0 0 
0 0 0 0 0 0 0 0 0 
0 0 0 0 0 0 0 0 0 
0 7.20229e-10 0 1.3335e-09 0 0 0 0 0 
1.6294e-09 1.06366e-09 0 0 0 0 1.93713e-09 0 0 
0 0 0 0 0 0 0 0 0 
0 0 0 0 0 4.14382e-09 2.70068e-09 0 0 
0 0 0 0 0 0 9.82832e-10 0 0 
3.27582e-09 0 0 5.12718e-09 8.23415e-07 0 0 0 0 
0 0 0 0 0 0 0 0 0 
0 0 0 0 0 0 0 0 0 
0 0 0 0 0 0 0 0 0 
0 1.10167e-09 0 0 0 0 0 4.9644e-10 0 
0 0 0 2.38335e-09 0 0 0 0 0 
0 0 1.73863e-09 0 0 3.46542e-09 2.79187e-09 0 2.53146e-09 
0 1.74806e-09 1.46528e-09 0 0 0 0 0 0 
0 0 0 0 0 0 0 1.00379e-06 9.85615e-09 
0 0 0 0 2.1212e-09 0 0 0 2.66182e-09 
0 6.04405e-10 0 2.43611e-09 0 0 0 0 0 
0 0 3.74864e-09 0 9.82872e-07 0 0 0 0 
0 0 0 0 0 0 0 0 0 
0 0 0 0 0 0 0 0 0 
0 0 0 0 0 0 0 0 1.80176e-09 
6.62457e-09 0 1.31864e-09 0 0 0 0 0 6.51328e-07 
4.24906e-09 0 0 1.74444e-09 0 0 2.14541e-09 0 5.80182e-10 
0 0 0 0 0 1.16818e-09 0 6.72105e-07 0 
0 0 0 0 0 0 0 0 0 
7.0014e-10 0 0 0 2.80992e-09 0 0 0 9.42457e-07 
0 0 0 0 7.4823e-07 0 0 1.67126e-11 0 
0 0 0 0 0 0 0 1.72722e-09 0 
0 6.77708e-07 1.34858e-09 0 0 9.19311e-07 0 0 0 
1.14999e-09 0 0 0 0 0 0 0 0 
0 0 0 0 0 0 0 0 0 
0 0 0 0 0 0 0 0 0 
0 0 0 6.21705e-10 2.67825e-10 0 1.418e-09 0 0 
2.8339e-09 2.10667e-09 0 1.32405e-09 0 0 0 0 0 
0 0 0 0 0 0 0 0 9.07599e-10 
0 1.34886e-09 2.50357e-09 0 0 2.43683e-09 0 0 0 
1.25419e-09 0 0 2.05254e-09 0 1.03523e-09 1.48426e-09 0 0 
6.26369e-09 0 0 9.49951e-07 0 1.42741e-09 0 3.83316e-09 0 
0 4.3432e-09 0 1.79593e-09 3.61941e-09 0 6.65656e-07 0 0 
1.74e-09 0 4.0004e-09 1.43719e-09 3.75143e-09 0 0 0 0 
0 0 4.89324e-10 0 0 0 0 0 0 
0 0 0 0 0 0 0 0 0 
0 0 0 0 0 0 0 0 0 
0 5.3751e-09 6.77219e-07 5.61798e-09 0 6.92012e-10 0 0 0 
0 0 3.06554e-09 0 0 0 6.40961e-10 1.19616e-09 6.52195e-07 
0 1.35757e-09 0 0 0 0 0 0 0 
0 0 6.98164e-09 7.38539e-07 0 3.4941e-09 0 1.78236e-09 0 
0 1.71611e-09 0 1.63049e-09 0 0 0 0 0 
0 0 1.31808e-09 0 9.14274e-07 0 0 4.2042e-09 0 
6.97612e-07 0 0 6.86745e-07 4.74651e-09 0 0 4.69681e-09 3.0651e-09 
0 2.27932e-09 3.94348e-09 0 0 0 0 0 0 
0 5.58808e-10 0 0 0 0 0 0 0 
0 0 0 0 0 0 0 0 0 
0 0 0 0 0 0 3.04816e-10 0 0 
0 0 0 0 0 0 0 0 0 
0 0 0 0 0 0 0 0 0 
1.05897e-09 0 0 0 3.69121e-10 0 0 0 0 
1.12173e-09 0 0 0 0 0 7.6701e-07 0 5.14341e-10 
0 0 0 0 0 0 0 0 0 
0 0 0 0 0 0 0 6.26928e-10 0 
0 0 0 0 4.12873e-09 0 6.15635e-09 0 0 
0 0 0 0 0 5.21425e-09 4.70295e-09 0 0 
0 0 0 0 0 0 0 0 0 
0 0 0 0 0 0 0 0 0 
0 0 0 0 0 0 0 0 0 
0 0 0 0 0 3.16548e-09 0 6.77162e-10 0 
0 5.67161e-10 2.81331e-09 8.4922e-10 0 0 0 0 9.68873e-10 
9.41045e-11 0 0 0 0 0 0 0 0 
0 0 2.26932e-09 1.28311e-09 0 0 0 1.1793e-09 2.76341e-09 
3.02414e-09 0 0 0 6.80031e-07 0 0 0 0 
0 0 1.4566e-09 0 0 0 0 0 0 
0 0 7.39007e-10 0 0 0 0 6.19162e-09 0 
1.08528e-09 0 4.21908e-09 0 0 7.78997e-07 0 0 4.82214e-10 
0 0 0 0 0 0 0 0 0 
0 0 0 0 0 0 0 0 0 
0 0 0 0 0 0 0 0 0 
1.22127e-09 0 0 8.75888e-07 8.93461e-07 0 0 1.40695e-10 0 
0 0 0 6.10129e-09 0 0 0 0 0 
2.16959e-09 0 0 1.74419e-09 0 0 0 0 0 
0 0 0 0 0 0 0 8.78187e-07 1.28493e-09 
0 0 0 0 4.58e-09 1.72759e-09 0 0 6.75078e-07 
0 1.34113e-09 0 0 6.60871e-07 0 0 0 0 
0 0 0 2.38248e-09 1.59568e-09 0 3.38105e-09 0 0 
0 0 6.84453e-07 0 0 0 0 7.6735e-07 0 
0 0 0 0 0 0 0 0 0 
0 0 0 0 0 0 0 0 0 
0 0 0 0 0 0 0 0 0 
0 1.48027e-09 0 0 0 0 5.63585e-09 0 0 
1.91034e-09 1.41762e-09 0 0 0 6.44721e-07 7.55402e-09 2.88639e-09 8.88444e-10 
0 7.12395e-10 0 1.76791e-09 6.51345e-07 2.69049e-09 1.77424e-09 0 0 
6.12808e-10 0 4.15735e-10 0 0 0 0 0 0 
0 0 0 0 4.88913e-09 0 0 0 8.97174e-10 
0 5.35317e-09 0 0 0 0 0 0 0 
1.71479e-09 0 6.59525e-07 0 0 0 2.32024e-09 2.82413e-10 0 
6.83927e-07 0 0 2.84082e-09 0 1.28039e-09 0 0 0 
0 0 0 0 0 0 0 0 0 
0 0 0 0 0 0 0 0 0 
0 0 0 0 0 0 0 0 0 
0 0 8.78699e-10 9.84835e-10 1.91509e-09 0 0 0 0 
0 0 1.33505e-09 4.59978e-10 0 0 0 0 1.7598e-09 
0 0 0 0 0 3.67531e-09 0 0 0 
0 8.60672e-10 0 0 0 0 0 9.92769e-07 1.15627e-06 
1.04971e-06 0 0 1.49216e-09 7.74674e-07 0 0 3.22698e-09 4.28634e-09 
0 0 3.26348e-09 0 0 0 0 0 0 
0 0 2.12105e-09 2.89169e-09 0 4.63293e-10 3.16629e-09 1.10788e-09 0 
1.42759e-09 0 0 0 0 7.89851e-10 0 1.58262e-09 7.06734e-10 
3.1928e-09 0 1.00454e-09 0 0 0 0 0 0 
0 0 0 0 0 0 0 0 0 
0 0 0 0 0 0 0 0 0 
0 0 0 0 0 5.4084e-09 0 0 7.01886e-09 
8.75089e-07 0 0 1.258e-09 0 0 0 0 0 
0 0 0 0 0 1.08139e-09 1.65693e-09 0 0 
0 0 0 0 0 0 0 0 0 
1.7767e-09 0 0 0 0 0 5.46728e-09 7.35082e-07 0 
0 3.62886e-09 0 0 0 0 0 0 0 
0 4.12552e-10 0 0 0 0 0 0 6.62764e-07 
1.34148e-09 0 0 0 2.81685e-09 1.1294e-09 0 0 0 
0 0 6.15959e-11 0 0 0 0 0 0 
0 0 0 0 0 0 0 0 0 
0 0 0 0 0 0 0 0 0 
0 0 0 0 0 0 0 0 4.22523e-09 
0 8.65086e-07 0 0 0 0 0 1.11112e-09 0 
7.59617e-10 0 0 0 0 0 0 0 1.00291e-09 
0 0 0 0 0 0 0 0 0 
0 2.10697e-09 0 2.07017e-09 0 7.41136e-07 0 0 3.69511e-09 
0 0 0 0 3.38073e-10 0 0 0 0 
0 0 0 0 0 0 0 0 0 
0 0 0 0 0 2.13788e-09 0 0 0 
0 3.29615e-10 0 0 0 0 0 0 0 
0 0 0 0 0 0 0 0 0 
0 0 0 0 0 0 0 0 0 
0 0 0 0 1.19815e-09 0 1.19604e-09 0 0 
0 0 1.78647e-08 0 2.57168e-09 0 0 0 0 
0 0 0 0 0 0 0 0 0 
0 0 0 1.76496e-09 0 0 0 2.24948e-09 0 
4.46777e-09 7.10059e-07 3.01827e-09 0 0 0 7.01628e-09 3.53484e-09 5.36859e-09 
0 0 0 0 8.65236e-07 0 0 0 0 
0 0 0 0 0 0 0 3.21613e-10 0 
1.07743e-09 0 1.58013e-09 0 0 1.87118e-09 2.46526e-09 0 1.08746e-09 
1.21267e-09 3.85603e-10 0 0 0 0 0 0 0 
0 0 0 0 0 0 0 0 0 
0 0 0 0 0 0 0 0 0 
0 0 0 0 0 0 0 0 0 
0 0 1.68602e-09 0 0 0 6.57343e-10 0 0 
0 0 0 0 0 0 0 0 0 
0 0 0 0 0 2.9598e-09 6.469e-07 5.39652e-09 1.27244e-09 
0 3.80625e-09 0 0 0 1.87861e-09 0 2.38768e-09 0 
0 0 0 0 2.44387e-09 8.61492e-07 0 3.55105e-09 1.57416e-09 
0 0 0 0 0 0 0 0 0 
0 0 0 0 4.04149e-10 7.0469e-10 0 0 2.3848e-09 
0 0 0 0 0 0 0 0 0 
0 0 0 0 0 0 0 0 0 
0 0 0 0 0 0 0 0 0 
0 0 0 0 0 0 0 3.9963e-09 0 
0 1.53751e-09 0 9.92326e-10 0 0 0 0 1.35508e-09 
0 0 0 0 0 0 0 0 0 
0 0 0 0 0 0 0 3.17028e-09 0 
0 0 0 2.14037e-09 0 0 0 0 0 
0 0 0 0 0 0 0 0 0 
0 0 0 0 0 0 0 0 0 
0 0 0 0 0 0 1.56099e-09 0 6.52471e-07 
0 1.84161e-09 0 0 0 0 0 0 0 
0 0 0 0 0 0 0 0 0 
0 0 0 0 0 0 0 0 0 
0 0 0 0 0 0 0 0 6.44322e-07 
0 0 9.25178e-10 0 2.17203e-09 3.42522e-09 0 4.1894e-10 9.77411e-10 
9.97916e-10 0 0 0 0 0 0 0 0 
0 0 0 0 0 0 0 0 6.73252e-10 
0 0 0 0 7.59999e-10 0 0 6.39685e-10 0 
0 0 0 0 0 1.33283e-09 0 5.0004e-09 0 
1.98144e-09 0 0 0 4.14232e-09 0 7.01244e-10 7.57406e-10 0 
0 0 0 0 0 0 0 0 3.54825e-09 
1.93184e-09 0 0 0 0 1.50644e-09 0 0 0 
0 0 0 0 0 0 0 0 0 
0 0 0 0 0 0 0 0 0 
0 0 0 0 0 0 0 0 2.08368e-09 
1.44886e-09 0 3.4348e-10 0 0 0 1.01796e-09 0 0 
0 0 0 0 0 0 0 0 0 
0 0 0 0 1.26342e-09 0 0 0 9.34323e-10 
0 0 0 0 0 8.28004e-10 0 0 0 
0 0 0 0 0 0 0 0 0 
0 0 2.38556e-09 0 1.21311e-09 6.82813e-07 0 2.99077e-09 0 
0 0 0 0 0 0 0 0 0 
0 0 0 0 0 0 0 1.32863e-09 0 
0 0 0 0 0 0 0 0 0 
0 0 0 0 0 0 0 0 0 
0 0 0 0 0 0 0 0 0 
0 2.2273e-09 1.62916e-09 1.22545e-09 0 0 0 3.16955e-09 6.59469e-07 
4.53467e-09 0 0 0 0 0 0 0 0 
4.89489e-10 3.55132e-10 0 0 2.52997e-10 1.01921e-09 0 0 0 
0 0 0 0 0 0 0 3.89343e-10 0 
0 0 0 0 0 0 0 0 1.46561e-09 
0 0 2.70774e-09 7.08206e-10 0 0 0 0 3.21508e-09 
0 0 0 0 0 0 0 0 0 
1.2245e-09 0 0 0 0 1.9109e-09 0 0 0 
0 0 0 0 0 0 0 0 0 
0 0 0 0 0 0 0 0 0 
0 0 0 0 0 0 0 0 0 
0 6.91056e-10 0 0 9.30261e-10 0 0 0 0 
0 0 4.41993e-09 0 6.73126e-07 0 0 1.54547e-09 0 
0 0 0 0 0 8.64602e-11 0 8.94054e-10 0 
0 0 0 0 8.69064e-10 0 0 2.6247e-09 0 
0 0 0 0 0 0 0 0 0 
0 6.05587e-10 0 0 0 6.79192e-07 6.46714e-09 0 0 
3.96633e-09 0 0 0 0 0 0 0 0 
0 7.54419e-10 2.09078e-09 0 6.52514e-07 4.13731e-09 0 0 2.65038e-09 
0 1.71956e-09 0 0 0 0 0 0 0 
0 0 0 0 0 0 0 0 0 
0 0 0 0 0 0 0 0 0 
0 0 0 0 0 0 0 0 0 
0 0 0 0 0 0 0 0 0 
0 0 0 0 3.79263e-09 0 0 2.71347e-09 0 
0 0 2.74281e-09 0 0 0 2.66376e-09 6.4546e-07 0 
4.58602e-09 0 0 0 0 0 0 0 0 
6.47088e-07 4.46191e-09 0 1.24452e-09 0 0 0 0 0 
1.48057e-08 6.63002e-07 0 2.15914e-09 0 0 0 0 0 
0 0 1.13348e-09 0 0 0 0 0 0 
0 0 8.56523e-07 0 0 0 0 0 0 
0 0 0 0 0 0 0 0 0 
0 0 0 0 0 0 0 0 0 
0 0 0 0 0 0 0 0 0 
0 0 0 0 0 0 4.77611e-09 0 0 
1.35234e-09 1.94593e-10 0 0 8.18729e-10 0 6.70943e-07 0 3.69744e-09 
0 0 0 0 0 0 2.26689e-09 4.88093e-10 0 
0 0 4.70927e-10 0 0 0 0 0 0 
0 0 1.38721e-09 0 0 0 3.5805e-09 0 0 
0 0 0 2.66795e-09 0 0 0 0 0 
0 0 0 0 0 0 0 0 8.39154e-10 
0 2.84091e-09 0 8.56796e-07 5.14876e-09 0 0 0 0 
0 0 0 0 0 0 0 0 0 
0 0 0 0 0 0 0 0 0 
0 0 0 0 0 0 0 0 1.17535e-09 
0 1.91972e-09 0 0 0 7.7239e-09 6.95494e-07 2.79109e-09 2.68125e-09 
9.43702e-10 2.66982e-09 0 0 0 0 0 0 0 
0 0 0 8.14067e-07 0 1.09274e-09 0 1.91392e-09 0 
0 0 1.81568e-10 0 0 0 0 0 0 
2.22459e-09 0 0 0 0 0 0 0 0 
6.40235e-10 0 0 0 0 0 1.48371e-10 0 0 
0 0 0 0 0 0 1.84819e-09 0 0 
0 0 0 0 0 0 1.36699e-09 0 3.9157e-10 
0 0 0 0 0 0 0 0 0 
0 0 0 0 0 0 0 0 0 
0 0 0 0 0 0 3.95492e-09 1.1248e-09 4.63811e-09 
0 1.17742e-09 0 2.60447e-09 8.11382e-07 0 0 0 2.99624e-09 
5.94339e-10 0 0 0 0 0 0 0 0 
0 0 7.35688e-07 0 2.23405e-09 7.87411e-07 9.09438e-09 0 0 
1.39211e-09 1.91856e-09 0 0 0 0 0 0 0 
0 0 0 4.43067e-10 0 0 0 0 0 