# vtk DataFile Version 5.1
vtk output
ASCII
DATASET STRUCTURED_POINTS
DIMENSIONS 100 100 1
SPACING 1 1 1
ORIGIN 0 0 0
POINT_DATA 10000
FIELD FieldData 6
feature_1 1 10000 float
0 0 0 0 0 0 0 0 0 
0 0 0 0 0 0 0 0 0 
0 0 0 0 0 0 0 0 0 
0 0 0 0 0 0 0 0 0 
0 0 0 0 0 0 0 0 0 
0 0 0 0 0 0 0 0 0 
0 0 0 0 0 0 0 0 0 
0 0 0 0 0 0 0 0 0 
0 0 0 0 0 0 0 0 0 
0 0 0 0 0 0 0 0 0 
0 0 0 0 0 0 0 0 0 
0 0 0 0 0 0 0 0 0 
0 0 0 0 0 0 0 0 0 
0 0 0 0 0 0 0 0 0 
0 0 0 0 0 0 0 0 0 
0 0 0 0 0 0 0 0 0 
0 0 0 0 0 0 0 0 0 
0 0 0 0 0 0 0 0 0 
0 0 0 0 0 0 0 0 0 
0 0 0 0 0 0 0 0 0 
0 0 0 0 0 0 0 0 0 
0 0 0 0 0 0 0 0 0 
0 0 0 0 0 0 0 0 0 
0 0 0 0 0 0 0 0 0 
0 0 0 0 0 0 0 0 0 
0 0 0 0 0 0 0 0 0 
0 0 0 0 0 0 0 0 0 
0 0 0 0 0 0 0 0 0 
0 0 0 0 0 0 0 0 0 
0 0 0 0 0 0 0 0 0 
0 0 0 0 0 0 0 0 0 
0 0 0 0 0 0 0 0 0 
0 0 0 0 0 0 0 0 0 
0 0 0 0 0 0 0 0 0 
0 0 0 0 0 0 0 0 0 
0 0 0 0 0 0 0 0 0 
0 0 0 0 0 0 0 0 0 
0 0 0 0 0 0 0 0 0 
0 0 0 0 0 0 0 0 0 
0 0 0 0 0 0 0 0 0 
0 0 0 0 0 0 0 0 0 
0 0 0 0 0 0 0 0 0 
0 0 0 0 0 0 0 0 0 
0 0 0 0 0 0 0 0 0 
0 0 0 0 0 0 0 0 0 
0 0 0 0 0 0 0 0 0 
0 0 0 0 0 0 0 0 0 
0 0 0 0 0 0 0 0 0 
0 0 0 0 0 0 0 0 0 
0 0 0 0 0 0 0 0 0 
0 0 0 0 0 0 0 0 0 
0 0 0 0 0 0 0 0 0 
0 0 0 0 0 0 0 0 0 
0 0 0 0 0 0 0 0 0 
0 0 0 0 0 0 0 0 0 
0 0 0 0 0 0 0 0 0 
0 0 0 0 0 0 0 0 0 
0 0 0 0 0 0 0 0 0 
0 0 0 0 0 0 0 0 0 
0 0 0 0 0 0 0 0 0 
0 0 0 0 0 0 0 0 0 
0 0 0 0 0 0 0 0 0 
0 0 0 0 0 0 0 0 0 
0 0 0 0 0 0 0 0 0 
0 0 0 0 0 0 0 0 0 
0 0 0 0 0 0 0 0 0 
0 0 0 0 0 0 0 0 0 
0 0 0 0 0 0 0 0 0 
0 0 0 0 0 0 0 0 0 
0 0 0 0 0 0 0 0 0 
0 0 0 0 0 0 0 0 0 
0 0 0 0 0 0 0 0 0 
0 0 0 0 0 0 0 0 0 
0 0 0 0 0 0 0 0 0 
0 0 0 0 0 0 0 0 0 
0 0 0 0 0 0 0 0 0 
0 0 0 0 0 0 0 0 0 
0 0 0 0 0 0 0 0 0 
0 0 0 0 0 0 0 0 0 
0 0 0 0 0 0 0 0 0 
0 0 0 0 0 0 0 0 0 
0 0 0 0 0 0 0 0 0 
0 0 0 0 0 0 0 0 0 
0 0 0 0 0 0 0 0 0 
0 0 0 0 0 0 0 0 0 
0 0 0 0 0 0 0 0 0 
0 0 0 0 0 0 0 0 0 
0 0 0 0 0 0 0 0 0 
0 0 0 0 0 0 0 0 0 
0 0 0 0 0 0 0 0 0 
0 0 0 0 0 0 0 0 0 
0 0 0 0 0 0 0 0 0 
0 0 0 0 0 0 0 0 0 
0 0 0 0 0 0 0 0 0 
0 0 0 0 0 0 0 0 0 
0 0 0 0 0 0 0 0 0 
0 0 0 0 0 0 0 0 0 
0 0 0 0 0 0 0 0 0 
0 0 0 0 0 0 0 0 0 
0 0 0 0 0 0 0 0 0 
0 0 0 0 0 0 0 0 0 
0 0 0 0 0 0 0 0 0 
0 0 0 0 0 0 0 0 0 
0 0 0 0 0 0 0 0 0 
0 0 0 0 0 0 0 0 0 
0 0 0 0 0 0 0 0 0 
0 0 0 0 0 0 0 0 0 
0 0 0 0 0 0 0 0 0 
0 0 0 0 0 0 0 0 0 
0 0 0 0 0 0 0 0 0 
0 0 0 0 0 0 0 0 0 
0 0 0 0 0 0 0 0 0 
0 0 0 0 0 0 0 0 0 
0 0 0 0 0 0 0 0 0 
0 0 0 0 0 0 0 0 0 
0 0 0 0 0 0 0 0 0 
0 1.60679e-09 0 0 0 7.19531e-11 0 0 0 
0 0 0 0 0 0 0 2.35378e-09 5.09163e-10 
0 0 0 0 0 0 0 0 0 
0 0 0 0 0 0 0 0 0 
0 0 0 0 0 0 0 0 0 
0 0 0 0 0 0 0 0 0 
0 0 0 0 0 0 0 0 0 
0 0 0 0 0 0 0 0 0 
0 0 0 0 0 0 0 0 0 
0 0 0 0 0 0 0 0 0 
0 0 0 0 0 0 0 0 1.28453e-09 
0 0 0 0 0 0 0 0 0 
0 0 0 0 0 0 0 0 0 
0 0 0 0 0 0 0 0 0 
0 0 0 0 0 0 0 0 0 
0 0 0 0 0 0 0 0 0 
0 0 0 0 0 0 0 0 0 
0 0 0 0 0 0 0 0 0 
0 0 0 0 0 0 0 0 0 
0 0 0 0 0 0 0 0 0 
0 0 0 0 0 0 0 0 0 
0 0 0 0 0 0 0 0 0 
0 0 0 7.9257e-07 6.15552e-09 2.4179e-09 0 1.09062e-09 0 
0 0 0 0 0 0 1.93738e-09 1.15647e-09 6.44883e-07 
1.58949e-09 0 0 0 0 0 0 0 0 
0 0 0 0 0 0 0 0 0 
0 0 0 0 0 0 0 0 0 
0 0 0 0 0 0 0 0 0 
0 0 0 0 0 0 0 0 0 
0 0 0 0 0 0 0 0 0 
0 0 0 0 0 0 0 0 0 
0 0 0 0 5.47633e-10 0 0 0 0 
0 0 0 1.40678e-09 0 0 0 0 0 
3.04383e-09 0 0 8.33428e-07 0 6.49892e-09 0 0 0 
7.45181e-10 0 0 0 0 0 0 0 0 
0 0 1.70707e-09 1.24719e-09 7.89205e-10 0 0 0 0 
0 0 0 0 0 0 0 0 0 
0 1.63934e-09 0 0 0 0 0 0 0 
0 0 0 0 0 0 0 0 0 
0 0 0 0 0 0 0 0 0 
0 0 0 0 0 0 0 0 0 
0 0 0 0 0 0 0 0 0 
0 0 0 0 4.3812e-09 6.46877e-07 0 0 0 
0 0 0 1.63194e-09 0 7.66566e-09 0 0 1.2529e-09 
0 0 0 0 0 0 0 0 1.47386e-09 
0 0 0 0 0 0 0 0 0 
0 0 0 0 0 0 0 0 0 
0 0 0 0 0 0 1.20027e-09 0 0 
6.46278e-07 1.36359e-09 0 8.93813e-10 0 0 0 0 0 
0 0 0 0 0 0 0 0 0 
0 0 0 0 0 0 0 0 0 
0 0 0 0 0 0 0 0 0 
0 0 0 0 0 0 0 0 0 
0 0 0 0 0 0 0 0 0 
0 0 0 0 1.05806e-09 3.862e-09 0 4.39723e-09 2.67936e-09 
0 0 0 0 0 0 7.98503e-07 0 0 
9.02116e-10 0 0 0 0 0 0 0 0 
0 0 1.40076e-09 0 0 0 0 0 0 
0 0 0 0 9.46985e-10 0 0 0 0 
0 1.25123e-10 0 0 4.51046e-10 0 0 0 0 
0 0 0 0 0 0 0 0 0 
0 0 0 0 0 0 0 0 0 
0 0 0 0 0 0 0 0 0 
0 0 0 0 0 0 0 0 0 
0 0 0 0 0 0 1.92671e-09 0 0 
7.54127e-10 0 0 4.12721e-10 0 0 2.33723e-09 0 0 
0 0 8.30012e-10 0 0 7.41881e-07 1.2046e-08 0 0 
0 0 6.89638e-07 0 7.38366e-10 1.0194e-09 0 0 0 
0 0 0 0 1.4921e-09 0 1.78752e-09 0 1.43398e-09 
9.26628e-12 2.11347e-09 0 0 0 0 0 0 0 
0 0 0 4.11659e-10 0 0 0 0 0 
0 0 0 0 0 0 0 0 0 
0 0 0 0 0 0 0 0 0 
0 0 0 0 0 0 0 0 0 
0 0 0 0 0 0 0 0 0 
0 0 0 0 0 0 1.17061e-09 5.07186e-09 0 
1.91933e-09 0 0 0 0 0 0 0 2.08655e-09 
1.53963e-09 0 0 0 1.24098e-09 1.7138e-09 0 0 2.15281e-09 
0 0 0 0 0 0 7.66396e-10 0 0 
0 0 0 0 0 0 0 7.1905e-07 0 
7.1913e-07 8.01768e-09 0 0 0 0 0 0 6.67274e-07 
0 0 0 0 0 0 0 0 0 
0 0 0 0 0 0 0 0 0 
0 0 0 0 0 0 0 0 0 
0 0 0 0 0 0 0 0 0 
0 0 0 0 0 0 0 0 0 
0 0 0 0 0 3.57496e-09 0 1.39542e-09 0 
0 0 0 0 0 0 0 0 1.7795e-09 
0 0 0 0 0 0 0 0 0 
0 0 0 0 0 0 1.74144e-09 0 0 
0 0 0 0 0 0 0 0 0 
0 0 2.30899e-09 0 0 0 0 8.89192e-10 0 
0 0 2.03116e-09 2.08834e-09 1.46279e-09 0 0 0 0 
0 0 0 0 0 0 0 0 0 
0 0 0 0 0 0 0 0 0 
0 0 0 0 0 0 0 0 0 
0 0 0 0 0 0 0 0 0 
0 0 0 0 0 0 0 1.79694e-09 1.57204e-09 
3.86291e-09 6.49441e-07 0 0 0 0 0 0 0 
0 0 0 0 6.50099e-07 0 0 0 0 
0 8.98457e-07 9.15332e-07 0 1.96702e-09 7.20207e-07 0 0 0 
0 0 0 0 0 0 0 1.94113e-09 0 
0 1.57313e-09 0 0 0 1.25809e-09 0 1.79509e-09 0 
1.84218e-09 0 8.2474e-10 1.36137e-09 1.11029e-09 0 0 0 0 
0 0 0 0 0 0 0 0 0 
0 0 0 0 0 0 0 0 0 
0 0 0 0 0 0 0 0 0 
0 0 0 0 0 0 0 0 0 
0 0 0 7.22417e-10 2.00125e-09 4.22711e-09 6.4691e-07 5.30384e-09 0 
0 2.6639e-09 3.58954e-09 0 0 0 0 0 4.63672e-11 
0 0 0 0 0 0 0 0 1.5289e-09 
0 0 0 0 0 0 1.81343e-09 0 1.12836e-09 
0 0 1.09701e-09 0 0 0 0 0 0 
0 0 0 0 0 0 3.16104e-10 0 0 
0 6.68518e-07 9.79321e-10 0 0 0 0 0 0 
0 0 0 0 0 0 0 1.61745e-09 0 
0 0 0 0 0 0 0 0 0 
0 0 0 0 0 0 0 0 0 
0 0 0 0 0 0 0 0 0 
0 0 0 0 0 1.03323e-09 0 0 5.14173e-09 
2.09938e-09 0 1.32337e-09 0 1.52508e-09 0 0 0 0 
0 7.15574e-10 0 0 0 0 0 0 0 
1.53238e-09 0 0 0 0 0 0 3.15599e-09 0 
1.43849e-09 0 0 0 0 0 0 0 0 
0 0 7.16461e-10 0 0 1.68809e-09 1.81034e-10 0 0 
0 0 0 0 7.02748e-10 0 0 0 1.74767e-09 
0 0 0 0 0 0 1.28616e-09 4.88926e-09 0 
0 0 0 0 0 0 0 0 0 
0 0 0 0 0 0 0 0 0 
0 0 0 0 0 0 0 0 0 
0 0 0 0 0 0 0 0 0 
0 0 0 0 0 0 0 0 0 
0 0 0 0 0 0 0 0 0 
0 0 0 0 0 1.98665e-09 0 0 3.05255e-10 
0 5.03371e-10 0 0 0 0 0 0 0 
0 0 0 0 0 0 0 4.45026e-09 0 
0 0 0 0 0 1.616e-09 0 0 0 
0 0 0 0 0 0 0 0 0 
7.18959e-07 0 1.77393e-09 1.57445e-09 0 0 0 0 0 
0 0 0 0 0 0 0 0 0 
0 0 0 0 0 0 0 0 0 
0 0 0 0 0 1.41634e-09 0 0 0 
0 0 0 0 0 0 0 1.6765e-09 0 
0 0 5.97385e-10 3.5955e-10 0 0 8.13151e-10 0 0 
3.23555e-10 0 0 0 1.71124e-09 0 0 8.76656e-07 8.73945e-07 
0 0 0 0 0 0 0 0 5.88409e-10 
0 0 0 0 0 0 0 0 6.46695e-07 
0 0 0 2.76821e-10 0 0 0 0 0 
0 6.54964e-07 0 0 0 0 0 0 2.86902e-09 
5.77471e-09 0 0 0 0 0 0 0 0 
0 0 0 0 0 0 0 0 0 
0 0 0 0 0 0 0 0 0 
6.52028e-10 0 0 0 0 0 0 1.11592e-09 0 
0 0 0 0 0 0 0 0 0 
1.18038e-09 0 0 0 0 7.24633e-10 0 0 0 
0 0 0 0 0 1.61066e-09 0 0 3.33724e-09 
0 0 2.23971e-09 2.25796e-10 0 0 6.45787e-07 1.91617e-09 0 
1.03076e-09 0 0 0 0 0 0 2.79447e-09 0 
0 0 0 0 0 0 4.55676e-09 0 0 
0 0 1.3664e-09 2.32873e-10 3.84273e-09 0 1.11048e-09 0 1.15165e-09 
1.52859e-09 0 7.25771e-07 0 0 0 0 0 0 
0 0 0 0 0 0 0 0 0 
0 0 0 0 0 0 0 0 0 
0 0 0 1.01593e-09 1.11481e-09 1.93933e-10 0 0 0 
0 0 0 0 0 0 0 0 0 
0 0 2.98341e-09 0 8.46471e-10 0 1.02267e-09 2.75012e-10 0 
0 0 0 0 0 0 0 2.01742e-09 0 
4.31671e-09 0 0 0 2.33887e-09 0 0 2.6201e-09 9.14628e-10 
0 0 1.18752e-09 0 0 0 0 6.1557e-10 0 
0 0 1.66859e-09 9.77085e-10 0 0 9.02071e-09 6.54537e-07 4.79985e-09 
0 0 0 0 0 0 0 5.66057e-10 0 
0 0 3.8699e-09 0 0 4.7824e-10 0 0 0 
0 0 0 0 0 0 0 0 0 
0 0 0 0 0 0 0 0 0 
0 0 0 0 0 0 0 0 0 
7.18723e-07 0 0 0 0 0 0 0 0 
0 0 4.27141e-09 6.47058e-07 0 0 1.70638e-09 3.60454e-09 6.9897e-07 
0 2.49554e-09 1.47969e-09 0 0 0 0 1.18034e-09 0 
0 0 0 0 1.33187e-09 0 0 0 0 
0 0 0 0 0 0 0 0 5.48055e-10 
0 0 1.19247e-09 0 1.83205e-09 0 0 0 3.09912e-09 
0 0 2.86842e-09 0 0 0 0 1.26051e-09 0 
0 0 0 2.89628e-09 0 0 2.58391e-09 0 0 
0 0 0 0 0 0 0 0 0 
0 0 0 0 0 0 0 0 0 
0 0 0 6.598e-07 0 0 0 0 7.75651e-07 
0 0 0 0 0 0 0 0 0 
0 0 0 0 0 0 0 0 0 
0 0 7.06182e-07 0 0 3.87987e-09 0 0 0 
0 1.02522e-09 2.90536e-09 9.56659e-11 0 6.96492e-10 0 0 0 
1.16276e-09 0 0 0 0 0 0 0 0 
0 1.08557e-09 0 0 0 0 0 0 0 
0 0 0 0 0 6.56157e-07 0 0 1.35969e-09 
0 4.57675e-10 0 0 6.78919e-10 9.85559e-10 0 1.38221e-09 0 
0 0 0 0 0 0 0 0 0 
0 0 0 0 0 0 0 0 0 
0 0 1.4371e-09 3.93613e-09 0 0 0 0 0 
0 0 3.58689e-09 2.31567e-09 0 0 9.9639e-10 0 0 
0 0 0 0 1.12017e-09 0 0 0 0 
1.63348e-09 0 0 0 0 0 2.29597e-09 5.99345e-09 3.56527e-09 
0 5.90283e-09 7.04295e-07 0 0 2.25135e-10 0 0 0 
0 0 0 0 3.79084e-09 2.84994e-09 4.64292e-09 1.63415e-09 0 
0 0 5.23807e-10 0 0 0 1.99344e-09 0 0 
0 0 2.53567e-09 0 0 0 0 0 0 
0 0 0 0 0 6.73243e-07 0 0 0 
3.04857e-10 0 0 0 0 0 0 0 0 
0 0 0 0 0 0 0 0 0 
0 0 0 0 0 0 1.35605e-09 0 7.11478e-07 
9.1235e-09 1.06478e-09 7.43644e-07 4.69619e-09 2.54173e-09 0 0 0 0 
0 8.57364e-10 0 0 0 0 0 0 0 
0 1.0561e-09 1.47282e-09 0 0 0 0 0 0 
0 0 0 7.35471e-09 0 0 0 0 0 
0 0 0 0 1.29998e-09 0 6.59226e-07 4.68598e-09 2.5814e-09 
0 0 0 0 0 0 6.50329e-07 2.19461e-09 1.62835e-09 
0 0 6.81572e-09 3.63686e-09 2.60111e-09 0 0 0 7.87833e-10 
0 0 0 0 0 0 0 0 0 
0 0 0 0 0 0 0 0 0 
0 0 0 0 0 0 0 0 0 
0 0 0 0 0 0 2.14141e-09 2.25652e-09 0 
0 0 0 0 0 6.25292e-10 1.28419e-09 0 2.91314e-09 
0 0 2.90108e-09 1.66389e-09 0 0 0 0 0 
0 0 4.08141e-10 0 0 0 0 0 0 
7.02372e-07 0 0 7.23914e-07 4.66471e-09 0 0 0 0 
0 0 0 0 0 0 0 2.71868e-09 0 
0 0 0 1.74551e-09 1.34151e-09 0 4.47252e-09 0 3.60396e-09 
0 0 4.21839e-09 6.50612e-07 0 0 1.13781e-09 0 1.0389e-09 
0 0 0 0 2.07852e-09 0 0 0 0 
0 0 3.8942e-10 0 0 0 0 0 0 
0 0 0 0 0 0 0 0 0 
0 0 0 0 0 0 0 0 4.60906e-10 
0 0 0 0 0 0 2.02211e-09 3.26951e-09 0 
0 8.7196e-07 0 0 0 0 0 0 0 
0 0 0 0 0 0 0 7.21142e-07 0 
5.70256e-09 0 0 0 0 0 0 0 0 
0 0 0 3.6487e-10 1.60576e-09 2.59875e-09 2.15565e-09 3.80477e-09 0 
0 0 0 0 0 0 0 0 0 
0 0 0 5.46633e-11 0 0 0 0 0 
5.24081e-13 0 0 0 0 0 0 6.76073e-07 4.42222e-09 
0 0 0 0 0 0 0 0 0 
0 0 0 0 0 0 0 0 0 
0 0 0 0 0 0 0 0 1.82841e-10 
0 1.14291e-09 1.13812e-09 0 1.59896e-09 0 0 2.85759e-10 0 
3.77616e-09 0 8.85175e-07 0 0 0 0 0 0 
0 0 0 0 0 2.82169e-09 0 5.87839e-09 0 
0 0 3.20265e-09 2.94468e-09 0 0 0 0 1.34365e-09 
0 0 0 0 0 0 0 5.20896e-07 6.44144e-10 
0 3.25683e-09 0 0 0 0 2.46932e-09 3.46626e-09 0 
0 0 1.17327e-09 1.88756e-09 0 0 0 0 0 
0 0 0 0 0 0 1.92744e-09 0 0 
0 0 0 0 0 0 0 0 0 
0 0 0 0 0 0 0 0 0 
0 0 0 0 0 0 0 0 0 
0 0 0 0 0 0 7.29812e-10 0 0 
0 0 0 0 0 5.64042e-09 6.84809e-07 4.42134e-09 0 
0 0 0 0 7.21635e-10 0 0 0 0 
0 0 0 0 0 0 0 0 0 
0 0 0 0 0 0 0 0 5.59597e-09 
0 0 0 0 7.48675e-07 0 8.05054e-07 0 0 
0 0 0 0 0 0 0 0 0 
0 0 0 0 0 3.62495e-09 6.5595e-07 0 0 
0 0 0 0 0 0 0 0 0 
0 0 0 0 0 0 0 0 0 
0 0 0 0 0 0 0 0 0 
0 0 0 0 0 0 0 0 0 
2.27713e-09 1.40217e-09 0 0 0 0 1.49604e-09 4.44514e-09 7.8561e-10 
0 1.72965e-09 0 0 0 0 0 0 0 
8.99395e-07 9.13679e-07 0 4.0299e-09 4.80424e-10 1.48088e-10 0 0 4.62678e-09 
0 0 0 0 0 0 0 0 0 
6.72336e-10 1.40877e-09 1.90378e-09 0 0 0 0 3.7261e-09 0 
1.81428e-09 0 0 0 0 1.03293e-09 7.85775e-10 0 0 
0 0 0 0 0 0 2.28707e-09 2.41725e-09 0 
2.57888e-09 0 0 0 0 0 0 0 0 
0 0 0 0 0 0 0 0 0 
0 0 0 0 0 0 0 0 0 
0 0 0 0 0 0 0 0 0 
0 0 0 2.35622e-09 0 0 0 0 0 
0 8.05105e-10 0 0 0 0 0 0 2.993e-09 
0 0 0 0 4.31951e-09 0 0 0 3.53547e-09 
0 0 2.06703e-09 0 3.8205e-09 0 0 0 0 
0 2.63542e-09 0 0 0 0 0 0 3.41857e-09 
8.7767e-07 0 0 7.3576e-07 0 1.39519e-09 1.58134e-09 0 0 
0 0 0 0 0 0 0 0 0 
0 0 0 0 0 0 0 0 0 
0 0 0 0 0 0 0 0 0 
0 0 0 0 0 0 0 0 0 
0 0 0 0 0 0 0 0 0 
0 0 0 3.63571e-09 7.14478e-07 0 9.06417e-09 0 0 
4.16874e-09 3.43691e-09 0 2.23247e-09 0 0 0 0 1.10241e-09 
0 0 0 0 0 0 0 0 0 
0 7.62197e-07 0 0 0 6.58855e-07 0 1.0017e-09 6.2861e-10 
0 7.56519e-10 0 0 1.57347e-09 0 0 0 0 
8.3208e-07 0 0 0 2.83051e-09 0 0 0 0 
0 0 0 0 0 0 0 0 0 
0 0 0 5.42543e-10 4.32698e-10 0 0 0 0 
0 0 0 0 0 0 0 0 0 
0 0 0 0 0 0 0 0 0 
0 0 0 0 0 0 0 0 0 
0 0 8.08918e-10 0 0 0 0 7.79096e-07 4.5017e-09 
0 0 0 6.54172e-07 0 0 1.52653e-09 4.61915e-10 0 
0 1.87183e-09 0 0 7.1246e-07 0 0 0 0 
0 0 1.01746e-08 0 0 0 4.23057e-09 0 1.42121e-09 
0 0 0 0 0 0 6.45372e-10 0 0 
0 0 1.01744e-09 0 7.4827e-07 6.8151e-09 0 0 0 
0 0 0 0 0 0 0 0 0 
0 0 0 0 0 0 0 0 0 
0 0 0 0 0 0 0 0 0 
0 0 0 0 0 0 0 0 0 
0 0 0 0 0 0 0 0 0 
0 0 0 0 0 0 0 0 5.3705e-09 
3.40576e-09 0 0 3.86785e-09 4.58518e-09 0 1.51174e-09 0 0 
0 0 0 0 0 0 0 1.06775e-09 8.31194e-09 
0 8.81144e-07 0 8.21369e-07 2.52035e-09 4.0206e-09 0 0 3.75185e-09 
0 0 0 0 0 0 0 0 0 
0 0 2.40703e-09 0 0 0 0 0 0 
4.52645e-10 0 0 0 0 0 0 0 0 
0 0 0 0 0 0 0 0 0 
0 0 0 0 0 0 0 0 0 
0 0 0 0 0 0 0 0 0 
0 0 0 0 0 0 8.49099e-10 0 0 
0 0 0 0 0 0 1.80327e-09 2.30341e-09 1.02318e-08 
7.3315e-07 0 0 1.4017e-09 0 0 0 1.33517e-09 0 
0 0 0 0 0 0 0 8.97385e-09 0 
0 8.59862e-07 0 0 0 0 0 0 0 
0 0 0 0 0 6.6744e-07 0 3.45321e-09 0 
0 1.6116e-09 0 0 4.17215e-09 0 0 0 0 
0 0 0 0 0 0 0 0 0 
0 0 5.62794e-10 0 0 0 0 0 0 
0 0 0 0 0 0 0 0 0 
0 0 0 0 0 0 0 0 0 
0 0 0 0 0 0 0 6.44099e-07 0 
0 0 0 0 0 0 0 0 0 
0 0 1.94063e-09 0 2.00503e-09 0 2.41326e-09 1.47219e-09 0 
0 0 0 6.85352e-10 0 0 0 0 0 
7.54986e-07 0 0 0 0 0 0 0 0 
0 0 0 1.38714e-09 0 0 5.00179e-09 0 3.15412e-09 
0 0 0 0 0 0 2.44689e-09 0 1.16369e-09 
1.06186e-09 0 0 0 0 0 0 0 0 
0 0 0 0 0 0 0 0 0 
4.98188e-10 0 0 0 0 0 0 0 0 
0 0 0 0 0 0 0 0 0 
0 0 0 0 0 0 2.34724e-09 2.06763e-09 0 
0 0 0 0 0 0 0 0 0 
0 3.18325e-09 0 0 0 0 0 0 0 
0 0 0 0 6.9484e-10 0 0 3.19122e-09 0 
0 0 0 0 0 0 6.18957e-10 1.08636e-09 0 
0 0 0 0 0 0 0 0 0 
4.75378e-09 0 0 8.46206e-07 0 8.42061e-07 8.88291e-09 0 7.1531e-10 
0 0 0 0 0 0 0 0 1.06468e-10 
0 0 0 0 3.47086e-09 0 0 0 0 
2.22577e-09 1.04571e-09 0 0 0 0 0 0 0 
0 0 0 0 0 0 0 0 0 
0 0 0 0 0 0 0 0 0 
0 0 0 0 1.48719e-09 3.0567e-09 0 0 0 
0 0 0 0 0 0 0 0 0 
0 0 0 0 3.05843e-10 0 0 0 0 
1.62065e-09 0 5.00443e-09 0 0 4.16795e-09 0 0 0 
0 0 0 0 5.60263e-10 0 0 0 0 
6.75895e-07 2.86289e-09 0 0 0 8.80453e-07 0 3.7688e-09 2.59491e-09 
0 0 2.05109e-10 0 0 0 0 0 0 
4.21081e-10 0 1.39863e-09 0 4.41839e-09 0 0 0 7.17086e-07 
2.10045e-09 0 0 0 0 0 0 0 0 
0 0 0 0 0 0 0 0 0 
0 0 0 0 0 0 1.15097e-10 0 0 
0 0 7.71239e-10 0 0 0 0 6.44216e-07 0 
0 1.20605e-09 0 0 0 0 0 0 0 
0 0 0 0 6.48442e-07 0 0 0 0 
0 0 0 0 9.0716e-07 8.93424e-07 0 0 0 
0 0 0 0 0 0 0 0 0 
2.60501e-09 8.86085e-09 0 0 0 1.44953e-09 0 0 1.74816e-09 
0 0 0 3.76689e-10 0 0 0 0 0 
1.5124e-09 0 0 0 0 1.21898e-08 6.99906e-07 0 0 
0 0 0 0 0 0 0 0 0 
0 0 0 0 0 0 0 0 0 
0 0 0 0 0 0 0 0 0 
0 0 0 0 0 0 0 1.37728e-09 1.82418e-09 
0 0 0 0 0 0 0 0 0 
2.81419e-10 0 0 0 2.87349e-09 0 0 2.35759e-09 0 
0 0 0 0 0 1.12626e-08 0 0 0 
0 0 0 0 0 0 0 0 0 
0 0 0 0 0 0 0 0 1.25692e-11 
0 0 0 0 0 0 0 0 0 
0 0 1.65165e-09 0 0 0 0 2.02734e-09 0 
5.04201e-09 0 7.11401e-07 0 0 0 0 0 0 
0 0 0 0 0 0 0 0 0 
0 0 0 0 0 0 0 0 0 
2.5806e-10 4.03752e-10 0 0 7.23448e-10 0 0 0 0 
1.38923e-09 0 0 0 0 0 0 0 0 
0 0 0 0 0 2.52294e-09 0 0 6.74378e-10 
0 0 0 0 9.20637e-10 0 0 0 3.45569e-09 
3.32764e-10 0 0 0 0 0 0 0 0 
0 0 0 0 0 0 1.76251e-09 0 2.98226e-09 
2.63092e-09 0 0 0 0 0 0 0 0 
0 0 0 0 0 0 6.87649e-07 1.08124e-09 1.47236e-09 
0 0 3.5892e-09 2.39128e-09 0 0 0 0 0 
0 0 0 0 0 0 0 0 0 
0 0 0 0 0 0 0 0 0 
0 0 0 0 0 0 0 0 0 
0 0 0 5.05014e-10 0 0 0 0 0 
0 0 0 9.197e-10 0 0 0 1.87888e-09 1.43618e-09 
0 0 0 0 1.95049e-09 8.58367e-09 6.77648e-07 0 0 
1.54343e-09 0 9.21088e-10 0 0 0 0 0 0 
0 0 0 0 0 0 8.25635e-10 0 0 
0 0 0 0 0 0 3.94699e-09 3.11795e-09 0 
0 0 0 6.54403e-07 0 1.85557e-09 6.64307e-10 0 0 
3.64002e-09 0 0 0 0 2.48559e-09 0 0 0 
0 0 0 0 0 0 0 0 0 
0 0 0 0 0 0 0 0 0 
0 0 0 1.4888e-09 0 1.99911e-09 0 0 0 
1.07168e-09 0 0 0 0 0 0 0 0 
0 0 0 0 0 0 6.4823e-07 0 0 
0 0 0 0 0 0 0 0 3.37139e-09 
0 0 1.00175e-09 0 0 0 0 0 0 
0 0 0 0 0 0 0 0 0 
0 0 0 0 0 2.50777e-09 6.00696e-09 6.49556e-07 0 
0 0 0 0 8.4649e-09 3.84316e-09 0 0 0 
0 1.52058e-09 0 0 0 0 0 1.10033e-09 1.56621e-09 
0 4.37413e-10 0 0 0 0 0 0 0 
0 0 0 0 0 0 0 0 0 
0 0 0 0 0 7.99652e-10 6.44499e-07 4.51175e-09 3.57133e-09 
0 0 0 0 0 0 0 0 0 
0 0 0 0 0 1.04852e-09 1.88069e-09 0 0 
0 0 0 0 0 0 8.48895e-10 1.24064e-09 0 
2.62547e-09 0 0 0 0 0 0 6.77595e-07 0 
0 8.68036e-10 0 0 0 0 0 0 0 
0 0 0 0 4.21315e-09 0 0 2.86963e-09 0 
0 0 0 8.35844e-10 0 0 0 0 0 
0 0 0 3.72838e-09 0 0 0 6.60503e-07 0 
0 0 4.2131e-10 0 0 0 0 0 0 
0 0 0 0 0 0 0 0 0 
0 0 0 0 9.5944e-10 0 0 0 2.44232e-09 
0 0 0 0 0 0 0 0 0 
0 5.12647e-10 0 0 0 0 0 0 6.55724e-10 
0 9.22124e-10 0 0 0 0 0 0 4.04855e-10 
0 0 0 0 4.12828e-10 0 2.45148e-09 0 0 
0 0 0 0 0 0 0 0 0 
0 0 0 0 0 6.4864e-07 4.37899e-09 4.35865e-09 0 
0 0 0 0 0 1.06638e-09 0 0 0 
3.44547e-09 0 6.57213e-07 3.08638e-09 0 1.89572e-09 0 1.7418e-09 0 
0 0 0 0 0 0 0 0 0 
0 0 0 0 0 0 0 0 0 
0 0 0 0 0 0 0 0 0 
1.5445e-09 6.31001e-10 0 0 0 0 0 0 0 
0 0 0 0 6.37698e-10 0 0 0 0 
0 0 1.11927e-09 0 0 0 0 6.68974e-10 0 
0 0 0 1.49433e-09 0 0 0 9.57246e-10 3.93343e-09 
0 0 0 9.8591e-07 9.13814e-07 0 0 4.44595e-10 0 
0 0 0 0 0 0 0 0 0 
9.78042e-10 9.64476e-10 0 0 0 0 6.97424e-10 0 0 
0 0 0 0 0 0 0 0 0 
0 0 0 0 0 0 0 0 0 
0 0 0 0 0 0 0 0 0 
0 0 0 0 0 0 0 0 0 
1.17586e-09 0 0 0 0 0 0 0 0 
0 0 0 0 0 0 1.14923e-09 1.10533e-09 0 
0 0 0 0 0 0 0 5.3993e-10 0 
0 0 0 0 0 0 0 0 0 
0 0 0 8.31234e-07 0 0 6.90264e-09 0 0 
5.09864e-10 4.83063e-10 0 0 0 0 0 7.54245e-10 8.42779e-10 
0 0 0 0 0 0 0 0 0 
2.97396e-09 8.57714e-10 1.74586e-09 0 0 0 1.10341e-09 0 0 
0 0 1.86964e-09 0 0 0 0 0 0 
0 0 0 0 0 0 0 0 0 
0 0 0 0 0 0 0 0 5.76904e-10 
0 0 0 0 0 0 0 0 0 
0 0 0 0 0 0 1.93748e-09 0 0 
0 0 6.05668e-10 0 0 0 4.22304e-09 6.47181e-07 0 
0 0 0 0 1.71421e-09 0 0 0 0 
6.70606e-07 0 3.4721e-09 0 0 0 0 0 0 
0 0 0 0 0 0 0 0 0 
0 0 0 0 0 0 0 0 4.69303e-09 
6.66152e-07 0 0 1.3635e-09 1.1299e-09 0 0 0 0 
1.7804e-09 6.56874e-07 0 0 0 0 0 0 0 
0 0 0 0 0 0 0 0 0 
0 0 0 0 0 0 0 0 2.58524e-10 
0 0 0 5.85572e-09 0 0 0 0 0 
0 0 0 0 0 5.89204e-09 6.78778e-07 0 0 
0 0 0 1.16521e-09 0 0 0 3.3843e-09 0 
2.6715e-09 0 0 0 0 0 0 1.75705e-09 0 
0 6.05292e-09 0 0 0 0 0 3.56091e-09 4.13827e-10 
3.46966e-12 6.88396e-10 0 0 0 0 0 0 0 
0 0 0 0 0 0 0 0 0 
0 0 0 2.58355e-09 0 0 0 0 2.13878e-09 
0 1.11443e-08 0 0 0 0 0 0 0 
0 0 0 0 0 0 0 0 0 
0 0 0 0 0 0 0 0 0 
0 0 0 6.44195e-07 0 0 0 0 0 
0 0 0 0 6.79406e-07 0 0 0 5.53233e-09 
0 0 0 5.38392e-10 0 0 0 3.52577e-09 0 
2.04096e-09 2.16577e-09 0 0 0 0 1.13486e-09 1.12268e-09 6.56597e-07 
4.57948e-09 3.33249e-09 0 0 0 0 0 1.94601e-09 0 
0 0 0 0 0 0 6.8892e-10 0 0 
0 0 0 0 0 0 0 0 1.72573e-09 
0 0 0 0 0 2.18803e-09 0 0 5.22038e-09 
0 0 2.37762e-09 0 0 0 0 0 0 
0 0 0 0 0 0 0 0 0 
0 0 0 0 0 0 0 0 0 
0 0 0 0 2.08327e-09 0 0 0 1.19091e-09 
0 0 0 0 0 0 0 0 0 
0 1.96209e-09 0 1.57926e-09 0 0 3.68105e-09 0 0 
2.15847e-09 0 0 8.3664e-10 0 0 0 0 0 
1.10157e-09 2.39029e-09 1.30023e-09 0 0 0 0 0 0 
0 0 1.54687e-09 6.68095e-07 4.96472e-09 0 0 7.91404e-10 0 
0 0 0 0 0 0 0 0 0 
0 0 0 0 0 1.51429e-09 0 2.22622e-09 0 
6.52348e-07 0 0 0 2.11027e-09 1.08813e-09 0 0 0 
0 0 0 0 0 0 0 0 0 
0 0 0 0 0 0 0 0 0 
0 0 0 9.54285e-10 0 0 0 0 9.45917e-10 
0 0 0 2.79379e-09 0 0 0 0 1.90854e-09 
2.27055e-09 2.43162e-09 7.37952e-07 3.58221e-09 0 0 0 6.63183e-07 2.43402e-09 
0 0 0 6.00618e-10 0 2.57412e-09 0 0 0 
8.42278e-10 2.10328e-09 0 2.96721e-10 0 0 0 0 0 
0 0 0 0 0 0 0 0 7.98431e-10 
0 0 0 0 0 0 0 0 0 
0 0 0 9.82993e-07 1.08419e-06 0 0 0 0 
0 0 0 0 0 0 0 0 0 
0 0 0 0 0 0 0 0 0 
0 0 0 0 0 0 0 0 0 
0 0 0 0 0 0 0 0 0 
0 6.61669e-10 0 0 0 7.07983e-07 2.17776e-09 0 1.83829e-09 
0 0 4.13386e-09 1.07475e-09 0 0 0 0 2.18639e-09 
2.23768e-09 0 0 0 0 6.71962e-07 1.95937e-09 1.27438e-09 1.5818e-09 
0 0 0 0 0 0 0 0 0 
6.61406e-10 0 0 0 0 0 3.90205e-09 0 5.48629e-10 
0 0 0 0 0 0 0 0 0 
0 0 0 0 0 9.49395e-07 0 0 3.91726e-09 
1.70419e-09 0 0 0 0 8.01067e-10 0 0 7.66482e-07 
0 0 1.52595e-09 6.07878e-11 0 0 0 0 0 
0 0 0 0 0 0 0 0 0 
0 0 0 0 0 0 0 0 0 
0 0 0 0 0 0 1.45174e-09 0 1.12703e-09 
0 0 0 0 7.43722e-07 0 2.22675e-09 0 3.05781e-09 
0 0 0 4.00033e-09 0 0 0 0 0 
2.24466e-09 0 1.79399e-10 0 0 0 0 0 0 
0 0 0 0 0 0 0 6.80482e-07 0 
0 1.87369e-09 4.34283e-10 0 0 0 0 0 0 
0 0 0 1.27197e-09 0 0 0 0 0 
2.22597e-09 3.63925e-09 0 0 0 0 0 0 0 
0 7.7012e-07 0 0 0 0 0 0 0 
0 0 0 0 0 0 0 0 0 
0 0 0 0 0 0 0 0 0 
0 0 0 0 0 6.48193e-09 6.95956e-07 3.25061e-09 0 
4.07098e-09 0 0 2.04876e-09 0 0 0 0 1.70031e-09 
0 0 3.74552e-09 6.64537e-07 9.21266e-10 1.0044e-09 0 1.58036e-09 0 
0 0 1.24101e-09 0 1.68066e-09 0 9.4312e-10 0 0 
0 0 2.25307e-09 7.63365e-07 8.13392e-09 0 0 0 0 
1.86735e-09 0 7.53656e-09 0 8.3486e-10 0 0 9.98262e-10 1.17729e-09 
0 0 1.20269e-09 0 0 0 0 4.3584e-09 1.09727e-09 
0 6.68316e-07 3.64187e-09 2.02188e-09 0 1.00772e-09 0 0 0 
0 0 0 3.13263e-09 0 0 0 0 0 
0 0 0 0 0 0 0 0 0 
0 0 0 0 0 0 0 0 0 
0 0 0 0 0 0 2.85909e-09 0 0 
0 0 0 4.16763e-10 0 0 7.07128e-10 0 2.65349e-09 
0 0 0 0 0 1.00819e-08 0 1.63767e-09 0 
6.72069e-07 0 2.34874e-09 0 0 2.89555e-09 0 0 0 
0 0 0 0 0 7.66106e-07 0 1.60949e-09 0 
0 0 0 4.40032e-09 0 0 2.59244e-09 1.27468e-09 0 
0 4.14183e-10 0 0 0 0 0 0 0 
0 2.72113e-09 0 1.51614e-09 0 0 0 0 0 
0 0 0 0 2.63762e-09 0 0 0 0 
0 0 0 0 0 0 0 0 0 
0 0 0 0 0 0 0 0 0 
0 0 0 0 0 0 0 0 0 
0 1.4067e-09 0 0 0 0 0 0 6.745e-07 
0 0 1.93342e-09 2.12014e-09 9.89843e-10 0 0 3.92858e-09 0 
0 0 0 0 0 0 6.6194e-07 0 0 
0 0 0 1.51313e-09 0 0 0 0 0 
0 0 0 0 0 9.6401e-07 1.73235e-09 0 0 
0 0 3.14149e-09 0 6.55606e-07 0 0 0 0 
0 1.89407e-09 2.72758e-09 0 0 0 0 0 0 
0 0 4.90428e-09 0 0 0 0 7.6467e-10 0 
0 0 0 0 0 0 0 0 0 
0 0 0 0 0 0 0 0 0 
0 0 0 0 0 0 0 0 0 
0 0 0 0 0 0 0 0 0 
0 0 0 0 0 0 0 0 0 
0 7.79654e-10 0 1.3046e-09 0 0 0 0 0 
1.61844e-09 1.15042e-09 0 0 0 0 1.9434e-09 0 0 
0 0 0 0 0 0 0 0 0 
0 0 0 0 0 4.16387e-09 2.76091e-09 0 0 
0 0 0 0 0 0 9.70049e-10 0 0 
3.38647e-09 0 0 5.00981e-09 8.23383e-07 0 0 0 0 
0 0 0 0 0 0 0 0 0 
0 0 0 0 0 0 0 0 0 
0 0 0 0 0 0 0 0 0 
0 1.06225e-09 0 0 0 0 0 6.03009e-10 0 
0 0 0 2.40948e-09 0 0 0 0 0 
0 0 1.66071e-09 0 0 3.44704e-09 2.83821e-09 0 2.48946e-09 
0 1.6275e-09 1.41433e-09 0 0 0 0 0 0 
0 0 0 0 0 0 0 1.00382e-06 9.77799e-09 
0 0 0 0 2.2008e-09 0 0 0 2.52012e-09 
0 5.4945e-10 0 2.29155e-09 0 0 0 0 0 
0 0 3.7543e-09 0 9.82909e-07 0 0 0 0 
0 0 0 0 0 0 0 0 0 
0 0 0 0 0 0 0 0 0 
0 0 0 0 0 0 0 0 1.72231e-09 
6.67424e-09 0 1.24014e-09 0 0 0 0 0 6.51414e-07 
4.31928e-09 0 0 1.76758e-09 0 0 2.06207e-09 0 6.63209e-10 
0 0 0 0 0 1.07111e-09 0 6.72023e-07 0 
0 0 0 0 0 0 0 0 0 
6.83115e-10 0 0 0 2.64972e-09 0 0 0 9.42332e-07 
0 0 0 0 7.48179e-07 0 0 1.39295e-10 0 
0 0 0 0 0 0 0 1.84482e-09 0 
0 6.77775e-07 1.32141e-09 0 0 9.19382e-07 0 0 0 
1.11218e-09 0 0 0 0 0 0 0 0 
0 0 0 0 0 0 0 0 0 
0 0 0 0 0 0 0 0 0 
0 0 0 6.43324e-10 3.5745e-10 0 1.19124e-09 0 0 
2.81895e-09 2.1094e-09 0 1.20444e-09 0 0 0 0 0 
0 0 0 0 0 0 0 0 9.46716e-10 
0 1.29504e-09 2.53858e-09 0 0 2.45972e-09 0 0 0 
1.25082e-09 0 0 2.0931e-09 0 9.68997e-10 1.53439e-09 0 0 
6.24462e-09 0 0 9.50044e-07 0 1.41495e-09 0 3.80441e-09 0 
0 4.31631e-09 0 1.91809e-09 3.47682e-09 0 6.65717e-07 0 0 
1.8432e-09 0 3.94085e-09 1.4596e-09 3.58784e-09 0 0 0 0 
0 0 5.06706e-10 0 0 0 0 0 0 
0 0 0 0 0 0 0 0 0 
0 0 0 0 0 0 0 0 0 
0 5.48018e-09 6.77281e-07 5.59971e-09 0 6.15097e-10 0 0 0 
0 0 3.20621e-09 0 0 0 6.77939e-10 1.12463e-09 6.52125e-07 
0 1.43833e-09 0 0 0 0 0 0 0 
0 0 6.89355e-09 7.38601e-07 0 3.5374e-09 0 1.69823e-09 0 
0 1.69555e-09 0 1.54908e-09 0 0 0 0 0 
0 0 1.29071e-09 0 9.14165e-07 0 0 4.1705e-09 0 
6.97579e-07 0 0 6.86712e-07 4.59001e-09 0 0 4.73506e-09 2.90847e-09 
0 2.23786e-09 3.93931e-09 0 0 0 0 0 0 
0 6.06292e-10 0 0 0 0 0 0 0 
0 0 0 0 0 0 0 0 0 
0 0 0 0 0 0 2.96063e-10 0 0 
0 0 0 0 0 0 0 0 0 
0 0 0 0 0 0 0 0 0 
1.10002e-09 0 0 0 4.21022e-10 0 0 0 0 
1.17064e-09 0 0 0 0 0 7.66918e-07 0 6.82297e-10 
0 0 0 0 0 0 0 0 0 
0 0 0 0 0 0 0 7.58379e-10 0 
0 0 0 0 4.13308e-09 0 5.96264e-09 0 0 
0 0 0 0 0 5.13701e-09 4.56083e-09 0 0 
0 0 0 0 0 0 0 0 0 
0 0 0 0 0 0 0 0 0 
0 0 0 0 0 0 0 0 0 
0 0 0 0 0 3.28431e-09 0 7.06932e-10 0 
0 5.00886e-10 2.93956e-09 7.37339e-10 0 0 0 0 1.00806e-09 
1.41049e-10 0 0 0 0 0 0 0 0 
0 0 2.27863e-09 1.34279e-09 0 0 0 1.16143e-09 2.76916e-09 
2.99685e-09 0 0 0 6.80069e-07 0 0 0 0 
0 0 1.5057e-09 0 0 0 0 0 0 
0 0 6.90819e-10 0 0 0 0 6.33449e-09 0 
1.05387e-09 0 4.19981e-09 0 0 7.7905e-07 0 0 3.97894e-10 
0 0 0 0 0 0 0 0 0 
0 0 0 0 0 0 0 0 0 
0 0 0 0 0 0 0 0 0 
1.06977e-09 0 0 8.76042e-07 8.93381e-07 0 0 2.16522e-10 0 
0 0 0 6.16961e-09 0 0 0 0 0 
2.16771e-09 0 0 1.79288e-09 0 0 0 0 0 
0 0 0 0 0 0 0 8.78144e-07 1.22334e-09 
0 0 0 0 4.61564e-09 1.74767e-09 0 0 6.74985e-07 
0 1.33562e-09 0 0 6.6092e-07 0 0 0 0 
0 0 0 2.44342e-09 1.53354e-09 0 3.42384e-09 0 0 
0 0 6.84441e-07 0 0 0 0 7.67202e-07 0 
0 0 0 0 0 0 0 0 0 
0 0 0 0 0 0 0 0 0 
0 0 0 0 0 0 0 0 0 
0 1.5466e-09 0 0 0 0 5.64308e-09 0 0 
1.86443e-09 1.54933e-09 0 0 0 6.44852e-07 7.50972e-09 2.9374e-09 7.51347e-10 
0 8.0202e-10 0 1.77389e-09 6.5127e-07 2.60935e-09 1.72152e-09 0 0 
5.40371e-10 0 4.0179e-10 0 0 0 0 0 0 
0 0 0 0 4.81024e-09 0 0 0 8.50899e-10 
0 5.42981e-09 0 0 0 0 0 0 0 
1.69697e-09 0 6.5942e-07 0 0 0 2.33921e-09 4.11344e-10 0 
6.84047e-07 0 0 2.75613e-09 0 1.35653e-09 0 0 0 
0 0 0 0 0 0 0 0 0 
0 0 0 0 0 0 0 0 0 
0 0 0 0 0 0 0 0 0 
0 0 8.30172e-10 9.77427e-10 1.90019e-09 0 0 0 0 
0 0 1.37088e-09 4.99933e-10 0 0 0 0 1.68576e-09 
0 0 0 0 0 3.53949e-09 0 0 0 
0 7.63206e-10 0 0 0 0 0 9.92622e-07 1.15634e-06 
1.04963e-06 0 0 1.56598e-09 7.74566e-07 0 0 3.24086e-09 4.25971e-09 
0 0 3.15528e-09 0 0 0 0 0 0 
0 0 2.10839e-09 2.77159e-09 0 5.97258e-10 3.21735e-09 1.06026e-09 9.6812e-12 
1.38089e-09 0 0 0 0 7.97635e-10 0 1.53992e-09 8.11437e-10 
3.16213e-09 0 9.97106e-10 0 0 0 0 0 0 
0 0 0 0 0 0 0 0 0 
0 0 0 0 0 0 0 0 0 
0 0 0 0 0 5.35478e-09 0 0 6.98269e-09 
8.75026e-07 0 0 1.28319e-09 0 0 0 0 0 
0 0 0 0 0 1.00275e-09 1.79679e-09 0 0 
0 0 0 0 0 0 0 0 0 
1.81329e-09 0 0 0 0 0 5.53504e-09 7.34986e-07 0 
0 3.65939e-09 0 0 0 0 0 0 0 
0 4.81817e-10 0 0 0 0 0 0 6.62709e-07 
1.34063e-09 0 0 0 2.77465e-09 1.07858e-09 0 0 0 
0 0 3.52259e-11 0 0 0 0 0 0 
0 0 0 0 0 0 0 0 0 
0 0 0 0 0 0 0 0 0 
0 0 0 0 0 0 0 0 4.12536e-09 
0 8.65039e-07 0 0 0 0 0 1.16747e-09 0 
8.07036e-10 0 0 0 0 0 0 0 9.5355e-10 
0 0 0 0 0 0 0 0 0 
0 2.07733e-09 0 2.095e-09 0 7.4102e-07 0 0 3.77107e-09 
0 0 0 0 4.1897e-10 0 0 0 0 
0 0 0 0 0 0 0 0 0 
0 0 0 0 0 2.08461e-09 0 0 0 
0 4.11135e-10 0 0 0 0 0 0 0 
0 0 0 0 0 0 0 0 0 
0 0 0 0 0 0 0 0 0 
0 0 0 0 1.02556e-09 0 1.06883e-09 0 0 
0 0 1.77923e-08 0 2.58041e-09 0 0 0 0 
0 0 0 0 0 0 0 0 0 
0 0 0 1.60191e-09 0 0 0 2.28237e-09 0 
4.38393e-09 7.10176e-07 3.00544e-09 0 0 0 6.89179e-09 3.58651e-09 5.45762e-09 
0 0 0 0 8.6529e-07 0 0 0 0 
0 0 0 0 0 0 0 3.49148e-10 0 
1.12918e-09 0 1.58056e-09 0 0 1.91007e-09 2.38956e-09 0 1.03944e-09 
1.17012e-09 3.8083e-10 0 0 0 0 0 0 0 
0 0 0 0 0 0 0 0 0 
0 0 0 0 0 0 0 0 0 
0 0 0 0 0 0 0 0 0 
0 0 1.72609e-09 0 0 0 5.53564e-10 0 0 
0 0 0 0 0 0 0 0 0 
0 0 0 0 0 2.9544e-09 6.47023e-07 5.45948e-09 1.29253e-09 
0 3.79308e-09 0 0 0 1.81518e-09 0 2.26375e-09 0 
0 0 0 0 2.47407e-09 8.61484e-07 0 3.61429e-09 1.66588e-09 
0 0 0 0 0 0 0 0 0 
0 0 0 0 4.31475e-10 6.54019e-10 0 0 2.3074e-09 
0 0 0 0 0 0 0 0 0 
0 0 0 0 0 0 0 0 0 
0 0 0 0 0 0 0 0 0 
0 0 0 0 0 0 0 3.97658e-09 0 
0 1.42267e-09 0 9.84171e-10 0 0 0 0 1.20062e-09 
0 0 0 0 0 0 0 0 0 
0 0 0 0 0 0 0 3.11959e-09 0 
0 0 0 2.01521e-09 0 0 0 0 0 
0 0 0 0 0 0 0 0 0 
0 0 0 0 0 0 0 0 0 
0 0 0 0 0 0 1.44721e-09 0 6.52437e-07 
0 1.74347e-09 0 0 0 0 0 0 0 
0 0 0 0 0 0 0 0 0 
0 0 0 0 0 0 0 0 0 
0 0 0 0 0 0 0 0 6.44197e-07 
0 0 9.88778e-10 0 2.16303e-09 3.39276e-09 0 4.39171e-10 1.02816e-09 
9.71917e-10 0 0 0 0 0 0 0 0 
0 0 0 0 0 0 0 0 6.86798e-10 
0 0 0 0 7.21309e-10 0 0 6.97205e-10 0 
0 0 0 0 0 1.40605e-09 0 4.98481e-09 0 
1.88274e-09 0 0 0 4.16014e-09 0 7.16368e-10 7.64722e-10 0 
0 0 0 0 0 0 0 0 3.43294e-09 
1.9649e-09 0 0 0 0 1.47857e-09 0 0 0 
0 0 0 0 0 0 0 0 0 
0 0 0 0 0 0 0 0 0 
0 0 0 0 0 0 0 0 2.14183e-09 
1.45689e-09 0 4.47342e-10 0 0 0 9.96195e-10 0 0 
0 0 0 0 0 0 0 0 0 
0 0 0 0 1.15587e-09 0 0 0 9.43893e-10 
0 0 0 0 0 8.16077e-10 0 0 0 
0 0 0 0 0 0 0 0 0 
0 0 2.34743e-09 0 1.2066e-09 6.82798e-07 0 3.02237e-09 0 
0 0 0 0 0 0 0 0 0 
0 0 0 0 0 0 0 1.2518e-09 0 
0 0 0 0 0 0 0 0 0 
0 0 0 0 0 0 0 0 0 
0 0 0 0 0 0 0 0 0 
0 2.15273e-09 1.68901e-09 1.1918e-09 0 0 0 3.07793e-09 6.59396e-07 
4.50197e-09 0 0 0 0 0 0 0 0 
3.68797e-10 3.4404e-10 0 0 2.67814e-10 9.36571e-10 0 0 0 
0 0 0 0 0 0 0 3.92195e-10 0 
0 0 0 0 0 0 0 0 1.40962e-09 
0 0 2.60153e-09 6.79575e-10 0 0 0 0 3.2476e-09 
0 0 0 0 0 0 0 0 0 
1.2479e-09 0 0 0 0 1.97823e-09 0 0 0 
2.94616e-11 0 0 0 0 0 0 0 0 
0 0 0 0 0 0 0 0 0 
0 0 0 0 0 0 0 0 0 
0 7.39594e-10 0 0 9.7574e-10 0 0 0 0 
0 0 4.34668e-09 0 6.73192e-07 0 0 1.59788e-09 0 
0 0 0 0 0 4.289e-11 0 9.63155e-10 0 
0 0 0 0 9.8162e-10 0 0 2.54459e-09 0 
0 0 0 0 0 0 0 0 0 
0 6.74897e-10 0 0 0 6.79259e-07 6.40546e-09 0 0 
4.14941e-09 0 0 0 0 0 0 0 0 
0 6.19146e-10 2.09996e-09 0 6.52512e-07 4.18858e-09 0 0 2.73618e-09 
0 1.73827e-09 0 0 0 0 0 0 0 
0 0 0 0 0 0 0 0 0 
0 0 0 0 0 0 0 0 0 
0 0 0 0 0 0 0 0 0 
0 0 0 0 0 0 0 0 0 
0 0 0 0 3.64886e-09 0 0 2.6619e-09 0 
0 0 2.70001e-09 0 0 0 2.72195e-09 6.45478e-07 0 
4.51518e-09 0 0 0 0 0 0 0 0 
6.47088e-07 4.47153e-09 0 1.35118e-09 0 0 0 0 0 
1.47488e-08 6.6296e-07 0 2.23528e-09 0 0 0 0 0 
0 0 1.11228e-09 0 0 0 0 0 0 
0 0 8.56539e-07 0 0 0 0 0 0 
0 0 0 0 0 0 0 0 0 
0 0 0 0 0 0 0 0 0 
0 0 0 0 0 0 0 0 0 
0 0 0 0 0 0 4.75011e-09 0 0 
1.37131e-09 2.51904e-10 0 0 7.87221e-10 0 6.7086e-07 0 3.73377e-09 
0 0 0 0 0 0 2.27475e-09 5.89262e-10 0 
0 0 4.89908e-10 0 0 0 0 0 0 
0 0 1.58054e-09 0 0 0 3.56958e-09 0 0 
0 0 0 2.69183e-09 0 0 0 0 0 
0 0 0 0 0 0 0 0 9.08409e-10 
0 2.77673e-09 0 8.56674e-07 5.14094e-09 0 0 0 0 
0 0 0 0 0 0 0 0 0 
0 0 0 0 0 0 0 0 0 
0 0 0 0 0 0 0 0 1.16992e-09 
0 1.9426e-09 0 0 0 7.56457e-09 6.95482e-07 2.77748e-09 2.60262e-09 
9.74271e-10 2.65068e-09 0 0 0 0 0 0 0 
0 0 0 8.1413e-07 0 1.17229e-09 0 1.96192e-09 0 
0 0 2.04498e-10 0 0 0 0 0 0 
2.29647e-09 2.87466e-11 0 0 0 0 0 0 0 
7.55765e-10 0 0 0 0 0 2.83878e-10 0 0 
0 0 0 0 0 0 1.8769e-09 0 0 
0 0 0 0 0 0 1.32046e-09 0 3.61005e-10 
0 0 0 0 0 0 0 0 0 
0 0 0 0 0 0 0 0 0 
0 0 0 0 0 0 3.85077e-09 1.15763e-09 4.65461e-09 
9.02528e-12 1.19134e-09 0 2.65055e-09 8.11444e-07 0 0 0 3.07151e-09 
6.32726e-10 0 0 0 0 0 0 0 0 
0 0 7.3575e-07 0 2.31974e-09 7.87463e-07 9.06177e-09 0 0 