# vtk DataFile Version 5.1
vtk output
ASCII
DATASET STRUCTURED_POINTS
DIMENSIONS 100 100 1
SPACING 1 1 1
ORIGIN 0 0 0
POINT_DATA 10000
FIELD FieldData 6
feature_1 1 10000 float
0 0 0 0 0 0 0 0 0 
0 0 0 0 0 0 0 0 0 
0 0 0 0 0 0 0 0 0 
0 0 0 0 0 0 0 0 0 
0 0 0 0 0 0 0 0 0 
0 0 0 0 0 0 0 0 0 
0 0 0 0 0 0 0 0 0 
0 0 0 0 0 0 0 0 0 
0 0 0 0 0 0 0 0 0 
0 0 0 0 0 0 0 0 0 
0 0 0 0 0 0 0 0 0 
0 0 0 0 0 0 0 0 0 
0 0 0 0 0 0 0 0 0 
0 0 0 0 0 0 0 0 0 
0 0 0 0 0 0 0 0 0 
0 0 0 0 0 0 0 0 0 
0 0 0 0 0 0 0 0 0 
0 0 0 0 0 0 0 0 0 
0 0 0 0 0 0 0 0 0 
0 0 0 0 0 1.15016e-10 0 0 0 
0 0 0 0 0 0 0 0 0 
0 0 0 0 0 0 0 0 0 
0 0 0 0 0 0 0 0 0 
0 0 0 0 0 0 0 0 0 
0 0 0 0 0 0 0 0 0 
0 0 0 0 0 0 0 0 0 
0 0 0 0 0 0 0 0 0 
0 0 0 0 0 0 0 0 0 
0 0 0 0 0 0 0 0 0 
0 0 0 0 0 0 0 0 0 
0 0 0 0 0 0 0 0 0 
0 0 0 0 0 0 0 0 0 
0 0 0 0 0 0 0 0 0 
0 0 0 0 0 0 0 0 0 
0 0 0 0 0 0 0 0 0 
0 0 0 0 0 0 0 0 0 
0 0 0 0 0 0 0 0 0 
0 0 0 0 0 0 0 0 0 
0 0 0 0 0 0 0 0 0 
0 0 0 0 0 0 0 0 0 
0 0 0 0 0 0 0 0 0 
0 0 0 0 0 0 0 0 0 
0 0 0 0 0 0 0 0 0 
0 0 0 0 0 0 0 0 0 
0 0 0 0 0 0 0 0 0 
0 0 0 0 0 0 0 0 0 
0 0 0 0 0 0 0 0 0 
0 0 0 0 0 0 0 0 0 
0 0 0 0 0 0 0 0 0 
0 0 0 0 0 0 0 0 0 
0 0 0 0 0 0 0 0 0 
0 0 0 0 0 0 0 0 0 
0 0 0 0 0 0 0 0 0 
0 0 0 0 0 0 0 0 0 
0 0 0 0 0 0 0 0 0 
0 0 0 0 0 0 0 0 0 
0 0 0 0 0 0 0 0 0 
0 0 0 0 0 0 0 0 0 
0 0 0 0 0 0 0 0 0 
0 0 0 0 0 0 0 0 0 
0 0 0 0 0 0 0 1.29773e-10 0 
0 0 0 0 0 0 0 0 0 
0 8.80782e-11 0 0 0 0 0 0 0 
0 0 0 0 0 0 0 0 0 
0 0 0 0 0 0 0 0 0 
0 0 0 0 0 0 0 0 0 
0 0 0 0 0 0 0 0 0 
0 0 0 0 0 0 0 0 0 
0 0 0 0 0 0 0 0 0 
0 0 0 0 0 0 0 0 0 
0 0 0 0 0 0 0 0 0 
0 0 0 0 0 0 0 0 0 
0 0 0 0 0 0 0 0 0 
0 0 0 0 0 0 0 0 0 
0 0 0 0 0 0 0 0 0 
0 0 0 0 0 0 0 0 0 
0 0 0 0 0 0 0 0 0 
0 0 0 0 0 0 0 0 0 
0 0 0 0 0 0 0 0 0 
0 0 0 0 0 0 0 0 0 
0 0 0 0 0 0 0 0 0 
0 0 0 0 0 0 0 0 0 
0 0 0 0 0 0 0 0 0 
0 0 0 0 0 0 0 0 0 
0 0 0 0 0 0 0 0 0 
0 0 0 0 0 0 0 0 0 
0 0 0 0 0 0 0 0 0 
0 0 0 0 0 0 0 0 0 
0 0 0 0 0 0 0 0 0 
0 0 0 0 0 0 0 0 0 
0 0 0 0 0 0 0 0 0 
0 0 0 0 0 0 0 0 0 
0 0 0 0 0 0 0 0 0 
0 0 0 0 0 0 0 0 0 
0 0 0 0 0 0 0 0 0 
0 0 0 0 0 0 0 0 0 
0 0 0 0 0 0 0 0 0 
0 0 0 0 0 0 0 0 0 
0 0 0 0 0 0 0 0 0 
0 0 0 0 0 0 0 0 0 
0 0 0 0 0 0 0 0 0 
0 0 0 0 0 0 0 0 0 
0 0 0 0 0 0 0 0 0 
0 0 0 0 0 0 0 0 0 
0 0 0 0 0 0 0 0 0 
0 0 0 0 0 0 0 0 0 
0 0 0 0 0 0 0 0 0 
0 0 2.01266e-11 0 0 0 0 0 0 
0 0 0 0 0 0 0 0 0 
0 0 0 0 0 0 0 0 0 
0 0 0 0 0 0 0 0 0 
0 0 0 0 0 0 0 0 0 
0 0 0 1.13626e-10 0 0 0 0 0 
0 0 0 0 0 0 0 0 0 
0 0 0 0 0 0 0 0 0 
0 0 0 0 0 0 0 0 0 
0 1.72903e-09 0 0 0 0 0 0 0 
0 0 0 0 0 0 0 2.23772e-09 4.55286e-10 
0 0 0 0 0 0 0 0 0 
0 0 0 0 0 0 0 0 0 
0 0 0 0 0 0 0 0 0 
0 0 0 0 0 0 0 0 0 
0 0 0 0 0 0 0 0 0 
0 0 0 0 0 0 0 0 0 
0 0 0 0 0 0 0 0 0 
0 0 0 0 0 0 0 0 0 
0 0 0 0 0 0 0 0 9.32661e-10 
0 0 0 0 0 0 0 0 0 
0 0 0 0 0 0 0 0 0 
0 0 0 0 0 0 0 0 0 
0 0 0 0 0 0 0 0 0 
0 0 0 0 0 0 0 0 0 
0 0 0 0 0 0 0 0 0 
0 0 0 0 0 0 0 0 0 
0 0 0 0 0 0 0 0 0 
0 0 0 0 0 0 0 0 0 
0 0 0 0 0 0 0 0 0 
0 0 0 0 0 0 0 0 0 
0 0 0 7.92685e-07 5.95434e-09 2.57481e-09 0 9.98796e-10 0 
0 0 0 0 0 0 2.01569e-09 1.13308e-09 6.44923e-07 
1.77065e-09 0 0 0 0 0 0 0 0 
0 0 0 0 0 0 0 0 0 
0 0 0 0 0 0 0 0 0 
0 0 0 0 0 0 0 0 0 
0 0 0 0 0 0 0 0 0 
0 0 0 0 0 0 0 0 0 
0 0 0 0 0 0 0 0 0 
0 0 0 0 3.95104e-10 0 0 0 0 
0 0 0 1.41248e-09 0 0 0 0 0 
2.98746e-09 0 0 8.3336e-07 0 6.54053e-09 0 0 0 
6.99106e-10 0 0 0 0 0 0 0 0 
0 0 1.73829e-09 1.199e-09 8.83842e-10 0 0 0 0 
0 0 0 0 0 0 0 0 0 
0 1.63395e-09 0 0 0 0 0 0 0 
0 0 0 0 0 0 0 0 0 
0 0 0 0 0 0 0 0 0 
0 0 0 0 0 0 0 0 0 
0 0 0 0 0 0 0 0 0 
0 0 0 0 4.47647e-09 6.46944e-07 0 0 0 
0 0 0 1.82529e-09 0 7.55022e-09 0 0 1.20094e-09 
0 0 0 0 0 0 0 0 1.44553e-09 
0 0 0 0 0 0 0 0 0 
0 0 0 0 0 0 0 0 0 
0 0 0 0 0 0 1.05734e-09 0 0 
6.46256e-07 1.36513e-09 0 8.80707e-10 0 0 0 0 0 
0 0 0 0 0 0 0 0 0 
0 0 0 0 0 0 0 0 0 
0 0 0 0 0 0 0 0 0 
0 0 0 0 0 0 0 0 0 
0 0 0 0 0 0 0 0 0 
0 0 0 0 1.05377e-09 3.85074e-09 0 4.33779e-09 2.59898e-09 
0 0 0 0 0 0 7.98615e-07 0 0 
9.20074e-10 0 0 0 0 0 0 0 0 
0 0 1.4412e-09 0 0 0 0 0 0 
0 0 0 0 9.12489e-10 0 0 0 0 
0 7.75356e-11 0 0 4.78046e-10 0 0 0 0 
0 0 0 0 0 0 0 0 0 
0 0 0 0 0 0 0 0 0 
0 0 0 0 0 0 0 0 0 
0 0 0 0 0 0 0 0 0 
0 0 0 0 0 0 1.85152e-09 0 0 
7.68963e-10 0 0 3.23957e-10 0 0 2.4478e-09 0 0 
0 0 9.73387e-10 0 0 7.41661e-07 1.1993e-08 0 0 
0 0 6.89676e-07 0 8.88177e-10 1.0126e-09 0 0 0 
0 0 0 0 1.48665e-09 0 1.91673e-09 0 1.51028e-09 
0 2.04163e-09 0 0 0 0 0 0 0 
0 0 0 4.72228e-10 0 0 0 0 0 
0 0 0 0 0 0 0 0 0 
0 0 0 0 0 0 0 0 0 
0 0 0 0 0 0 0 0 0 
0 0 0 0 0 0 0 0 0 
0 0 0 0 0 0 1.25184e-09 5.16671e-09 0 
2.14682e-09 0 0 0 0 0 0 0 2.04956e-09 
1.73994e-09 0 0 0 1.24899e-09 1.75436e-09 0 0 2.16214e-09 
0 0 0 0 0 0 5.79746e-10 6.66231e-12 0 
0 0 0 0 0 0 0 7.18996e-07 0 
7.19105e-07 7.81369e-09 0 0 0 0 0 0 6.67468e-07 
0 0 0 0 0 0 0 0 0 
0 0 0 0 0 0 0 0 0 
0 0 0 0 0 0 0 0 0 
0 0 0 0 0 0 0 0 0 
0 0 0 0 0 0 0 0 0 
0 2.48885e-11 0 0 0 3.52574e-09 0 1.35626e-09 0 
0 0 0 0 0 0 0 0 1.62627e-09 
0 0 0 0 0 0 0 0 0 
0 0 0 0 0 0 1.64945e-09 0 0 
0 0 0 0 0 0 0 0 0 
0 0 2.16385e-09 0 0 0 0 1.03775e-09 0 
0 0 2.08364e-09 2.03564e-09 1.32854e-09 0 0 0 0 
0 0 0 0 0 0 0 0 0 
0 0 0 0 0 0 0 0 0 
0 0 0 0 0 0 0 0 0 
0 0 0 0 0 0 0 0 0 
0 0 0 0 0 0 0 1.83405e-09 1.70277e-09 
3.7426e-09 6.49529e-07 0 0 0 0 0 0 0 
0 0 0 0 6.50156e-07 0 0 0 0 
0 8.98521e-07 9.15281e-07 0 1.77728e-09 7.20316e-07 0 0 0 
0 0 0 0 0 0 0 1.85982e-09 0 
0 1.51163e-09 0 0 0 1.50367e-09 0 1.60015e-09 0 
1.86538e-09 0 8.1986e-10 1.27226e-09 1.22479e-09 0 0 0 0 
0 0 0 0 0 0 0 0 0 
0 0 0 0 0 0 0 0 0 
0 0 0 0 0 0 0 0 0 
0 0 0 0 0 0 0 0 0 
0 0 0 5.29781e-10 1.81418e-09 4.26361e-09 6.47084e-07 5.36939e-09 0 
0 2.64519e-09 3.45425e-09 0 0 0 0 0 9.37829e-11 
0 0 0 0 0 0 0 0 1.50455e-09 
0 0 0 0 0 0 1.73411e-09 0 1.25065e-09 
0 0 1.16136e-09 0 0 0 0 0 0 
0 0 0 0 0 0 1.0646e-10 0 0 
0 6.68501e-07 1.04775e-09 0 0 0 0 0 0 
0 0 0 0 0 0 0 1.65306e-09 0 
0 0 0 0 0 0 0 0 0 
0 0 0 0 0 0 0 0 0 
0 0 0 0 0 0 0 0 0 
0 0 0 0 0 1.0318e-09 0 0 5.09473e-09 
1.97414e-09 0 1.54453e-09 0 1.51763e-09 0 0 0 0 
0 6.98642e-10 0 0 0 0 0 0 0 
1.38964e-09 0 0 0 0 0 0 2.93616e-09 0 
1.43457e-09 0 0 0 0 0 0 0 0 
0 0 5.14582e-10 0 0 1.75054e-09 6.43886e-11 0 0 
0 0 0 0 6.99309e-10 0 0 0 1.76946e-09 
0 0 0 0 0 0 1.28159e-09 5.00543e-09 0 
0 0 0 0 0 0 0 0 0 
0 0 0 0 0 0 0 0 0 
0 0 0 0 0 0 0 0 0 
0 0 0 0 0 0 0 0 0 
0 0 0 0 0 0 0 0 0 
0 0 0 5.50404e-11 0 0 0 0 0 
0 0 0 0 0 1.96648e-09 0 0 2.53573e-10 
0 4.08935e-10 0 0 0 0 0 0 0 
0 0 0 0 0 0 0 4.37338e-09 0 
0 0 0 0 0 1.65251e-09 0 0 0 
0 0 0 0 0 0 0 0 0 
7.18998e-07 0 1.75344e-09 1.47932e-09 0 0 0 0 0 
0 0 0 0 0 0 0 0 0 
0 0 0 0 0 0 0 0 0 
0 0 0 0 0 1.42208e-09 0 0 0 
0 0 0 0 0 0 0 1.50273e-09 0 
0 0 7.76183e-10 2.87349e-10 0 0 7.93526e-10 0 0 
1.96078e-10 0 0 0 1.56937e-09 0 0 8.76544e-07 8.73848e-07 
0 0 0 0 0 0 0 0 6.06459e-10 
0 0 0 0 0 0 0 0 6.46553e-07 
0 0 0 2.22778e-10 0 0 0 0 0 
0 6.54827e-07 0 0 0 0 0 0 2.84695e-09 
5.88271e-09 0 0 0 0 0 0 0 0 
0 0 0 0 0 0 0 0 0 
0 0 0 0 0 0 0 0 0 
6.33867e-10 0 0 0 0 0 0 1.02835e-09 0 
0 0 0 0 0 0 0 0 0 
1.09477e-09 0 0 0 0 8.28426e-10 0 0 0 
0 0 0 0 0 1.81247e-09 0 0 3.29748e-09 
0 0 1.99327e-09 1.47481e-10 0 0 6.46042e-07 1.78473e-09 0 
9.38035e-10 0 0 0 0 0 0 2.778e-09 0 
0 0 0 0 0 0 4.72941e-09 0 0 
0 0 1.39027e-09 3.8473e-10 3.83836e-09 0 1.10454e-09 0 1.07736e-09 
1.60083e-09 0 7.25665e-07 0 0 0 0 0 0 
0 0 0 0 0 0 0 0 0 
0 0 0 0 0 0 0 0 0 
0 0 0 1.04497e-09 1.03303e-09 2.48865e-10 0 0 0 
0 0 0 0 0 0 0 0 0 
0 0 2.94003e-09 0 9.00652e-10 0 8.41234e-10 1.76892e-10 0 
0 0 0 0 0 0 0 2.05476e-09 0 
4.48481e-09 0 0 0 2.43729e-09 0 0 2.54107e-09 9.1137e-10 
0 2.1371e-11 1.19764e-09 0 0 0 0 6.25864e-10 0 
0 0 1.36532e-09 1.03045e-09 0 0 8.84266e-09 6.5464e-07 4.58788e-09 
0 0 0 0 0 0 0 4.64794e-10 0 
0 0 3.76583e-09 0 0 3.68045e-10 0 0 0 
0 0 0 0 0 0 0 0 0 
0 0 0 0 0 0 0 0 0 
0 0 0 0 0 0 0 0 0 
7.18684e-07 0 0 0 0 0 0 0 0 
0 0 4.13844e-09 6.47097e-07 0 0 1.66051e-09 3.84801e-09 6.98799e-07 
0 2.34537e-09 1.58553e-09 0 0 0 0 1.24045e-09 0 
0 0 0 0 1.48635e-09 0 0 0 0 
0 0 0 0 0 0 0 0 7.96484e-10 
0 0 1.06793e-09 0 1.76843e-09 0 0 0 3.16286e-09 
0 0 2.88456e-09 0 0 0 0 1.20597e-09 0 
0 0 0 2.91425e-09 0 0 2.61557e-09 0 0 
0 0 0 0 0 0 0 0 0 
0 0 0 0 0 0 0 0 0 
0 0 0 6.59904e-07 0 0 0 0 7.75569e-07 
0 0 0 0 0 0 0 0 0 
0 0 0 0 0 0 0 0 0 
0 0 7.06191e-07 0 0 3.9062e-09 0 0 0 
0 8.58371e-10 2.85634e-09 1.2379e-10 0 7.11186e-10 0 0 0 
1.17598e-09 0 0 0 0 0 0 0 0 
0 1.08325e-09 0 0 0 0 0 0 0 
0 0 0 0 0 6.56325e-07 0 0 1.26943e-09 
0 3.76603e-10 0 0 5.46408e-10 9.21518e-10 0 1.47824e-09 0 
0 0 0 0 0 0 0 0 0 
0 0 0 0 0 0 0 0 0 
0 0 1.54141e-09 4.23445e-09 0 0 0 0 0 
0 0 3.4764e-09 2.28612e-09 0 0 1.20094e-09 0 0 
0 0 0 0 1.22468e-09 0 0 0 0 
1.67222e-09 0 0 0 0 0 2.30556e-09 6.10529e-09 3.73491e-09 
0 5.94758e-09 7.04221e-07 0 0 3.12544e-10 0 0 0 
0 0 0 0 3.95382e-09 2.94448e-09 4.81935e-09 1.56273e-09 0 
0 0 4.77787e-10 0 0 0 1.94481e-09 0 0 
0 0 2.51927e-09 0 0 0 0 0 0 
0 0 0 0 0 6.73335e-07 0 0 0 
1.35869e-10 0 0 0 0 0 0 0 0 
0 0 0 0 0 0 0 0 0 
0 0 0 0 0 0 1.32979e-09 0 7.11491e-07 
9.14813e-09 1.01054e-09 7.43821e-07 4.84059e-09 2.6496e-09 0 0 0 0 
0 6.53331e-10 0 0 0 0 0 0 0 
0 1.1787e-09 1.38565e-09 0 0 0 0 0 0 
0 0 0 7.28121e-09 0 0 0 0 0 
0 0 0 0 1.28895e-09 0 6.59184e-07 4.59065e-09 2.39936e-09 
0 0 0 0 0 0 6.50283e-07 2.20165e-09 1.66506e-09 
0 0 6.74666e-09 3.46952e-09 2.7208e-09 0 0 0 8.64148e-10 
0 0 0 0 0 0 0 0 0 
0 0 0 0 0 0 0 0 0 
0 0 0 0 0 0 0 0 0 
0 0 0 0 0 0 2.14913e-09 2.14643e-09 0 
0 0 0 0 0 5.79032e-10 1.48851e-09 0 2.85739e-09 
0 0 2.89572e-09 1.47152e-09 0 0 0 0 0 
0 0 4.00477e-10 0 0 0 0 0 0 
7.025e-07 0 0 7.2386e-07 4.84685e-09 0 0 0 0 
0 0 0 0 0 0 0 2.6559e-09 0 
0 0 0 1.73244e-09 1.34456e-09 0 4.63796e-09 0 3.52505e-09 
0 2.69192e-11 4.2209e-09 6.50676e-07 0 0 1.13804e-09 0 1.21195e-09 
0 0 0 0 1.99706e-09 0 0 0 0 
0 0 5.26148e-10 0 0 0 0 0 0 
0 0 0 0 0 0 0 0 0 
0 0 6.26053e-11 0 0 0 0 0 4.10703e-10 
0 0 0 0 0 0 2.13686e-09 3.33279e-09 0 
0 8.71932e-07 0 0 0 0 0 0 0 
0 0 0 0 0 0 0 7.20826e-07 0 
5.58027e-09 0 0 0 0 0 0 0 0 
0 0 0 1.50665e-10 1.53826e-09 2.41778e-09 2.11728e-09 3.74581e-09 0 
0 0 0 0 0 0 0 0 0 
0 0 0 0 0 0 0 8.86783e-11 0 
0 0 0 0 0 4.26407e-11 0 6.76259e-07 4.64793e-09 
0 0 0 0 0 0 0 0 0 
0 0 0 0 0 0 0 0 0 
0 0 0 0 0 0 0 0 1.57818e-10 
0 1.36397e-09 1.24372e-09 0 1.6373e-09 0 0 3.21286e-10 0 
3.8383e-09 0 8.85166e-07 0 0 0 0 0 0 
0 0 0 0 0 2.70522e-09 0 5.66496e-09 0 
0 0 3.35093e-09 2.87078e-09 0 0 0 0 1.38416e-09 
0 0 0 0 0 0 0 5.20655e-07 5.01921e-10 
0 3.31029e-09 0 0 0 0 2.43137e-09 3.4835e-09 0 
0 0 1.22213e-09 1.88977e-09 0 0 0 0 0 
0 0 0 0 0 0 1.89361e-09 0 0 
0 0 0 0 0 0 0 0 0 
0 0 0 0 0 0 0 0 1.17518e-10 
0 0 0 0 0 0 0 0 0 
0 0 0 0 0 0 9.53669e-10 0 0 
0 0 0 0 0 5.57942e-09 6.84787e-07 4.54032e-09 0 
0 0 0 0 8.39804e-10 0 0 0 0 
0 0 0 0 0 0 0 0 0 
0 0 0 0 0 0 0 0 5.60482e-09 
0 0 0 0 7.48563e-07 0 8.04933e-07 0 0 
0 0 2.33008e-11 0 0 0 0 0 0 
0 0 0 0 0 3.74246e-09 6.55865e-07 0 0 
0 0 0 0 0 0 0 0 0 
0 0 0 0 0 0 0 0 0 
0 0 0 0 0 0 0 0 0 
0 0 0 0 0 0 0 0 0 
2.33647e-09 1.48009e-09 0 0 0 0 1.54482e-09 4.50311e-09 8.12778e-10 
0 1.723e-09 0 0 0 0 0 0 0 
8.99381e-07 9.13763e-07 0 4.23633e-09 3.8377e-10 9.48689e-11 0 0 4.49383e-09 
0 0 0 0 0 0 0 0 0 
7.98316e-10 1.3658e-09 1.92185e-09 0 0 0 0 3.49735e-09 0 
1.92018e-09 0 0 0 0 9.19436e-10 7.91319e-10 0 0 
0 0 0 0 0 0 2.21533e-09 2.45869e-09 0 
2.60185e-09 0 0 0 0 0 0 0 0 
0 0 0 0 0 0 0 0 0 
0 0 0 0 0 0 0 0 0 
0 0 0 0 0 0 0 0 0 
0 0 0 2.55593e-09 0 0 0 0 0 
0 8.39304e-10 0 0 0 0 0 0 3.01263e-09 
0 0 0 0 4.32182e-09 0 0 0 3.55716e-09 
0 0 2.16928e-09 0 3.89033e-09 0 0 0 0 
0 2.74141e-09 0 0 0 0 0 0 3.43079e-09 
8.77624e-07 0 0 7.35634e-07 0 1.34509e-09 1.68827e-09 0 0 
0 0 0 0 0 0 0 0 0 
0 0 0 0 0 0 0 0 0 
0 0 0 0 0 0 0 0 0 
0 0 0 0 0 0 0 0 0 
0 0 0 0 0 0 0 0 0 
0 0 0 3.71732e-09 7.14232e-07 0 9.09215e-09 0 0 
4.28664e-09 3.30794e-09 0 2.0455e-09 0 0 0 0 9.32503e-10 
0 0 0 0 0 0 0 0 0 
0 7.62125e-07 0 0 0 6.58859e-07 0 1.17135e-09 7.09891e-10 
0 8.31524e-10 0 0 1.79524e-09 0 0 0 0 
8.31982e-07 0 0 0 2.97136e-09 0 0 0 0 
0 0 0 0 5.5819e-11 0 0 0 0 
0 0 0 6.44553e-10 4.28562e-10 0 0 0 0 
0 0 0 0 0 0 0 0 0 
0 0 0 0 0 0 0 0 0 
0 0 0 0 0 0 0 0 0 
0 0 6.4493e-10 0 0 0 0 7.79069e-07 4.62544e-09 
0 0 0 6.54237e-07 0 0 1.67443e-09 3.54743e-10 0 
0 2.08358e-09 0 0 7.12655e-07 0 0 0 0 
0 0 1.01675e-08 0 0 0 4.3887e-09 0 1.43779e-09 
0 0 0 0 0 0 6.18586e-10 0 0 
0 0 1.16728e-09 0 7.48301e-07 7.07643e-09 0 0 0 
0 0 0 0 0 0 0 0 0 
0 0 0 0 0 0 0 0 0 
0 0 0 0 0 0 0 0 0 
0 0 0 0 0 0 0 0 0 
0 0 0 0 0 0 0 0 0 
0 0 0 0 0 0 0 0 5.47579e-09 
3.44898e-09 0 0 3.92246e-09 4.61724e-09 0 1.69085e-09 0 0 
0 0 0 0 0 0 0 9.71549e-10 8.35007e-09 
0 8.81072e-07 0 8.21395e-07 2.56973e-09 3.87386e-09 0 0 3.72627e-09 
0 0 0 0 0 0 0 0 0 
0 0 2.35277e-09 0 0 0 0 0 0 
5.58181e-10 0 0 0 0 0 0 0 0 
0 0 0 0 0 0 0 0 0 
0 0 0 0 0 0 0 0 0 
0 0 0 0 0 0 0 0 0 
0 0 0 0 0 0 6.298e-10 0 0 
0 0 0 0 0 0 1.81769e-09 2.51056e-09 1.03333e-08 
7.33289e-07 0 0 1.46423e-09 0 0 0 1.27415e-09 0 
0 0 0 0 0 0 0 9.11534e-09 0 
0 8.59957e-07 0 0 0 0 0 0 0 
0 0 0 0 0 6.67575e-07 0 3.49188e-09 0 
0 1.56687e-09 0 0 4.17386e-09 0 0 0 0 
0 0 0 0 0 0 0 0 0 
0 0 6.6133e-10 0 0 0 0 0 0 
0 0 0 0 0 0 0 0 0 
0 0 0 0 0 0 0 0 0 
0 0 0 0 0 0 0 6.44266e-07 0 
0 0 0 0 0 0 0 0 0 
0 0 2.04055e-09 0 2.21557e-09 0 2.34956e-09 1.47087e-09 0 
0 0 0 7.95702e-10 0 0 0 0 0 
7.54819e-07 0 0 0 0 0 0 0 0 
0 0 0 1.3258e-09 0 0 5.19774e-09 0 3.03788e-09 
0 0 0 0 0 0 2.48348e-09 0 9.96992e-10 
1.18817e-09 0 0 0 0 0 0 0 0 
0 0 0 0 0 0 0 0 0 
4.45393e-10 0 0 0 0 0 0 0 6.01466e-11 
0 0 0 0 0 0 0 0 0 
0 0 0 0 0 0 2.31503e-09 2.02289e-09 0 
0 0 0 0 0 0 0 0 0 
0 3.02371e-09 0 0 0 0 0 0 0 
0 0 0 0 5.4694e-10 0 0 3.00972e-09 0 
0 0 0 0 0 0 5.23814e-10 1.07235e-09 0 
0 0 0 0 0 0 0 0 0 
4.68359e-09 0 0 8.46281e-07 0 8.42026e-07 8.91037e-09 0 6.9232e-10 
0 0 0 0 0 0 0 0 0 
0 0 0 0 3.65127e-09 0 0 0 0 
2.27851e-09 1.04831e-09 0 0 0 0 0 0 0 
0 0 0 0 0 0 0 0 0 
0 0 0 0 0 0 0 0 0 
0 0 0 0 1.5366e-09 3.15391e-09 0 0 0 
0 0 0 0 0 0 0 0 0 
0 0 0 0 1.69886e-10 0 0 0 0 
1.60637e-09 0 5.14956e-09 0 0 3.87941e-09 0 0 0 
0 0 0 0 7.26853e-10 0 0 0 0 
6.76135e-07 3.079e-09 0 0 0 8.80442e-07 0 3.74271e-09 2.6825e-09 
0 0 1.57659e-10 0 0 0 0 0 0 
2.92237e-10 0 1.33777e-09 0 4.2621e-09 0 0 0 7.17265e-07 
2.08766e-09 0 0 0 0 0 0 0 0 
0 0 0 0 0 0 0 0 0 
0 0 0 0 0 0 1.33658e-10 0 0 
0 0 8.45848e-10 0 0 0 0 6.44057e-07 0 
0 1.40251e-09 0 0 0 0 0 0 0 
0 0 0 0 6.48286e-07 0 0 0 0 
0 0 0 0 9.07256e-07 8.93606e-07 0 0 0 
0 0 0 0 0 0 0 0 0 
2.5604e-09 8.68476e-09 0 0 0 1.43691e-09 0 0 1.78456e-09 
0 0 0 3.92824e-10 0 0 0 0 0 
1.5374e-09 0 0 0 0 1.22366e-08 7.00152e-07 0 0 
0 0 0 0 0 0 0 0 0 
0 0 0 0 0 0 0 0 0 
0 0 0 0 0 0 0 0 0 
0 0 0 0 0 0 0 1.49444e-09 1.58818e-09 
0 0 0 0 0 0 0 0 0 
1.71657e-10 0 0 0 2.96851e-09 0 0 2.39107e-09 0 
0 0 0 0 0 1.13712e-08 0 0 0 
0 0 0 0 0 0 0 0 0 
0 0 0 0 0 0 0 0 0 
0 0 0 0 0 0 0 0 0 
0 0 1.67874e-09 0 0 0 0 2.12966e-09 0 
4.95965e-09 0 7.11598e-07 0 0 0 0 0 0 
0 0 0 0 0 0 0 0 0 
0 0 0 0 0 0 0 0 0 
4.05994e-10 3.96597e-10 0 0 9.12901e-10 0 0 0 0 
1.17181e-09 0 0 0 0 0 0 0 0 
0 0 0 0 0 2.49531e-09 0 0 4.99178e-10 
0 0 0 0 1.03487e-09 0 0 0 3.45353e-09 
3.01325e-10 0 0 0 0 0 0 0 0 
0 0 0 0 0 0 1.65997e-09 0 2.9318e-09 
2.61986e-09 0 0 0 0 0 0 0 0 
0 0 0 0 0 0 6.87625e-07 1.04422e-09 1.50792e-09 
0 0 3.52507e-09 2.30144e-09 0 0 0 0 0 
0 0 0 0 0 0 0 0 0 
0 0 0 0 0 0 0 0 0 
0 0 0 0 0 0 0 0 0 
0 0 0 5.22205e-10 0 0 0 0 0 
0 0 0 7.8263e-10 0 0 0 2.00487e-09 1.34398e-09 
0 0 0 0 1.94738e-09 8.59162e-09 6.77714e-07 0 0 
1.42246e-09 0 8.97622e-10 0 0 0 6.8482e-11 0 0 
0 0 0 0 0 0 7.43016e-10 0 0 
0 0 0 0 0 0 3.97096e-09 3.05303e-09 0 
0 0 0 6.54399e-07 0 2.0433e-09 7.25394e-10 0 0 
3.56869e-09 0 0 0 0 2.47096e-09 0 0 0 
0 0 0 0 0 0 0 0 0 
0 0 0 0 0 0 0 0 0 
0 0 0 1.69684e-09 0 2.02919e-09 0 0 0 
1.15051e-09 0 0 0 0 0 0 0 0 
0 0 0 0 0 0 6.4814e-07 0 0 
0 0 0 0 0 0 0 0 3.45074e-09 
0 0 1.03258e-09 0 0 0 0 0 0 
0 0 0 0 0 0 0 0 0 
0 0 0 0 0 2.42015e-09 6.14232e-09 6.49381e-07 0 
0 0 0 0 8.31527e-09 3.78351e-09 0 0 0 
0 1.56512e-09 0 0 0 0 0 1.28522e-09 1.57949e-09 
0 4.77353e-10 0 0 0 0 0 0 0 
0 0 0 0 0 0 0 0 0 
0 0 0 0 0 8.74915e-10 6.44316e-07 4.57471e-09 3.4698e-09 
0 0 0 0 0 0 0 0 0 
0 0 0 0 0 1.02297e-09 1.65928e-09 0 0 
0 0 0 0 0 0 9.9821e-10 1.23527e-09 0 
2.71878e-09 0 0 0 0 0 0 6.77715e-07 0 
0 7.61073e-10 0 0 0 0 0 0 0 
0 0 0 0 4.2422e-09 0 0 2.92944e-09 0 
0 0 0 7.98447e-10 0 0 0 0 0 
0 0 0 3.72066e-09 0 0 0 6.60501e-07 0 
0 0 5.1634e-10 0 0 0 0 0 0 
0 0 0 0 0 0 0 0 0 
0 0 0 0 8.98451e-10 0 0 0 2.46652e-09 
0 0 0 0 0 0 0 0 0 
0 7.72232e-10 0 0 0 0 0 0 5.74751e-10 
0 8.6815e-10 0 0 0 0 0 0 2.98969e-10 
0 0 0 0 2.53892e-10 0 2.4405e-09 0 0 
0 0 0 0 0 0 0 0 0 
0 0 0 0 0 6.4858e-07 4.3319e-09 4.34092e-09 0 
0 0 0 0 0 1.10684e-09 0 0 0 
3.45777e-09 0 6.57316e-07 3.11912e-09 0 1.79382e-09 0 1.75091e-09 0 
0 0 0 0 0 0 0 0 0 
0 0 0 0 0 0 0 0 0 
0 0 0 0 0 0 0 0 0 
1.48128e-09 4.28253e-10 0 0 0 0 0 0 0 
0 0 0 0 5.56824e-10 0 0 0 0 
0 0 1.02001e-09 0 0 0 0 8.14592e-10 0 
0 0 0 1.50139e-09 0 0 0 1.09831e-09 3.80461e-09 
0 0 0 9.85856e-07 9.13963e-07 0 4.68792e-14 4.70284e-10 0 
0 0 0 0 0 0 0 0 0 
1.05846e-09 9.34874e-10 0 0 0 0 7.50892e-10 0 0 
0 0 0 0 0 0 0 0 0 
0 0 0 0 0 0 0 0 0 
0 0 0 0 0 0 0 0 0 
0 0 0 0 0 0 0 0 0 
1.37892e-09 0 0 0 0 0 0 0 0 
0 0 0 0 0 0 1.31327e-09 9.967e-10 0 
0 0 0 0 0 0 0 3.54371e-10 0 
0 0 0 0 0 0 0 0 0 
0 0 0 8.31454e-07 0 0 6.79405e-09 0 0 
4.76722e-10 5.75528e-10 0 0 0 0 0 7.42176e-10 1.01029e-09 
0 0 0 0 0 0 0 0 0 
2.9176e-09 6.90667e-10 1.95938e-09 0 0 0 1.08518e-09 0 0 
0 0 1.86736e-09 0 0 0 0 0 0 
0 0 0 0 0 0 0 0 0 
0 0 0 0 0 0 0 0 6.01543e-10 
0 0 0 0 0 0 0 0 0 
0 0 0 0 0 0 1.85399e-09 0 0 
0 0 6.03222e-10 0 0 0 4.25622e-09 6.47311e-07 0 
0 0 0 0 1.67509e-09 0 0 0 0 
6.70655e-07 0 3.42634e-09 0 0 0 0 0 0 
0 0 0 0 0 0 0 0 0 
0 0 0 0 0 0 0 0 4.70205e-09 
6.66064e-07 1.10797e-11 0 1.35499e-09 1.2944e-09 0 0 0 0 
1.84417e-09 6.56874e-07 0 0 0 0 0 0 0 
0 0 0 0 0 0 0 0 0 
0 0 0 0 0 0 0 0 2.35046e-10 
0 0 0 5.78678e-09 0 0 0 0 0 
0 0 0 0 0 5.89355e-09 6.78848e-07 0 0 
0 0 0 1.27775e-09 0 0 0 3.41044e-09 0 
2.69167e-09 0 0 0 0 0 0 1.89924e-09 0 
0 6.15319e-09 0 0 0 0 0 3.5482e-09 4.39985e-10 
3.38812e-11 5.72784e-10 0 0 0 0 0 0 0 
0 0 0 0 0 0 0 0 0 
0 0 0 2.6988e-09 0 0 0 0 2.01599e-09 
0 1.11429e-08 0 0 0 0 0 0 0 
0 0 0 0 0 0 0 0 0 
0 0 0 0 0 0 0 0 0 
0 0 0 6.44109e-07 0 0 0 0 0 
0 0 0 0 6.79608e-07 0 0 0 5.6444e-09 
0 0 0 4.60833e-10 0 0 0 3.59763e-09 0 
1.89519e-09 2.19823e-09 0 0 0 0 1.15488e-09 1.25627e-09 6.56494e-07 
4.74321e-09 3.46902e-09 0 0 0 0 0 1.9094e-09 0 
0 0 0 0 0 0 8.93793e-10 0 0 
0 0 0 0 0 0 0 0 1.72068e-09 
0 0 0 0 0 2.22772e-09 0 0 5.20458e-09 
0 0 2.19071e-09 0 0 0 0 0 0 
0 0 0 0 0 0 0 0 0 
0 0 0 0 0 0 0 0 0 
0 0 0 0 2.03804e-09 0 0 0 1.23112e-09 
0 0 0 0 0 0 0 0 0 
0 1.91561e-09 0 1.65688e-09 0 0 3.79611e-09 0 0 
2.19655e-09 0 0 8.53909e-10 0 0 0 0 0 
1.20189e-09 2.48542e-09 1.1436e-09 0 0 0 0 0 0 
0 0 1.46595e-09 6.68069e-07 4.79545e-09 0 0 7.40228e-10 0 
0 0 0 0 0 0 0 0 0 
0 0 0 0 0 1.53111e-09 0 2.43532e-09 0 
6.52434e-07 0 0 0 2.20774e-09 1.25724e-09 0 0 0 
0 0 0 0 0 0 0 0 0 
0 0 0 0 0 0 0 0 0 
0 0 0 8.83385e-10 0 0 0 0 9.7066e-10 
0 0 0 2.71559e-09 0 0 0 0 1.85634e-09 
2.2351e-09 2.50994e-09 7.37989e-07 3.58615e-09 0 0 0 6.63187e-07 2.36628e-09 
0 0 0 5.93301e-10 0 2.74204e-09 0 0 0 
8.118e-10 1.99132e-09 0 2.78584e-10 0 0 0 0 0 
0 0 0 0 0 0 0 0 7.64298e-10 
0 0 0 0 0 0 0 0 0 
0 0 0 9.82929e-07 1.08417e-06 0 0 0 0 
0 0 0 0 0 0 0 0 0 
0 0 0 0 0 0 0 0 0 
0 0 0 0 0 0 0 0 0 
0 0 0 0 0 0 0 0 0 
0 6.94941e-10 0 0 0 7.08088e-07 2.08677e-09 0 1.839e-09 
0 0 4.15221e-09 1.02502e-09 0 0 0 0 2.25973e-09 
2.17362e-09 0 0 0 0 6.71913e-07 2.06277e-09 1.11975e-09 1.60239e-09 
0 0 0 0 0 0 0 0 0 
6.27416e-10 0 0 0 0 0 3.97516e-09 0 5.7666e-10 
0 0 0 0 0 0 0 0 0 
0 0 0 0 0 9.49414e-07 0 0 4.02088e-09 
1.75615e-09 0 0 0 0 4.61368e-10 0 0 7.6665e-07 
0 0 1.55604e-09 0 0 0 0 0 0 
0 0 0 0 0 0 0 0 0 
0 0 0 0 0 0 0 0 0 
0 0 0 0 0 0 1.59894e-09 0 1.16031e-09 
0 0 0 0 7.43616e-07 0 2.20732e-09 0 3.1263e-09 
0 0 0 4.0014e-09 0 0 0 0 0 
2.17641e-09 0 0 0 0 0 0 0 0 
0 0 0 0 0 0 0 6.80515e-07 0 
0 1.68353e-09 3.596e-10 0 0 0 0 0 0 
0 0 0 1.27712e-09 0 0 0 0 0 
2.29962e-09 3.63364e-09 0 0 0 0 0 0 0 
0 7.70138e-07 0 0 0 0 0 0 0 
0 0 0 0 0 0 0 0 0 
0 0 0 0 0 0 0 0 0 
0 0 0 0 0 6.47503e-09 6.95933e-07 3.26392e-09 0 
4.21818e-09 0 0 1.8018e-09 0 0 0 0 1.69215e-09 
0 0 3.6946e-09 6.64593e-07 8.91592e-10 9.21261e-10 0 1.638e-09 0 
0 0 1.33654e-09 0 1.76044e-09 0 1.08981e-09 0 0 
0 0 2.26894e-09 7.63299e-07 8.18237e-09 0 0 0 0 
1.953e-09 0 7.7015e-09 0 8.30214e-10 0 0 1.04801e-09 1.13052e-09 
0 0 1.35964e-09 0 0 0 0 4.33955e-09 1.19856e-09 
0 6.68507e-07 3.99016e-09 1.9524e-09 0 1.0252e-09 0 0 0 
0 0 0 3.13971e-09 0 0 0 0 0 
0 0 0 0 0 0 0 0 0 
0 0 0 0 0 0 0 0 0 
0 0 0 0 0 0 3.01768e-09 0 0 
0 0 0 3.32029e-10 0 0 6.20114e-10 0 2.52074e-09 
0 0 0 0 0 1.02762e-08 0 1.85736e-09 0 
6.71991e-07 0 2.45019e-09 0 0 2.96215e-09 0 0 0 
0 0 0 0 0 7.66068e-07 0 1.68624e-09 0 
0 0 0 4.53474e-09 0 0 2.6656e-09 1.39276e-09 0 
0 4.81539e-10 0 0 0 0 0 0 0 
0 2.77271e-09 0 1.35012e-09 0 0 0 0 0 
0 0 0 0 2.79724e-09 0 0 0 0 
0 0 0 0 0 0 0 0 0 
0 0 0 0 0 0 0 0 0 
0 0 0 0 0 0 0 0 0 
0 1.54265e-09 0 0 0 0 0 0 6.74451e-07 
0 0 1.99027e-09 2.13456e-09 1.21153e-09 0 0 3.95701e-09 0 
0 0 0 0 0 0 6.62028e-07 0 0 
0 0 0 1.4508e-09 0 0 0 0 0 
0 0 0 0 0 9.63735e-07 1.73596e-09 0 0 
0 0 2.99595e-09 0 6.55533e-07 0 0 0 0 
0 1.90822e-09 2.77978e-09 0 0 0 0 0 0 
0 0 4.75672e-09 0 0 0 0 9.94785e-10 0 
0 0 0 0 0 0 0 0 0 
0 0 0 0 0 0 0 0 0 
0 0 0 0 0 0 0 0 0 
0 0 0 0 0 0 0 0 0 
0 0 0 0 0 0 0 0 0 
0 8.94922e-10 0 1.33189e-09 0 0 0 0 0 
1.7241e-09 9.43301e-10 0 0 0 0 2.06995e-09 0 0 
0 0 0 0 0 0 0 0 0 
0 0 0 0 0 4.2083e-09 2.5866e-09 0 0 
0 0 0 0 0 0 9.33152e-10 0 0 
3.21496e-09 0 0 5.25358e-09 8.23337e-07 0 0 0 0 
0 0 0 0 0 0 0 0 0 
0 0 0 0 0 0 0 0 0 
0 0 0 0 0 0 0 0 0 
0 9.8736e-10 0 0 0 0 0 4.41661e-10 0 
0 0 0 2.38891e-09 0 0 0 0 0 
0 0 1.78366e-09 0 0 3.48308e-09 2.63239e-09 0 2.51091e-09 
0 1.7011e-09 1.46509e-09 0 0 0 0 0 0 
0 0 0 0 0 0 0 1.00372e-06 9.79807e-09 
0 0 0 0 2.15795e-09 0 0 0 2.64281e-09 
0 5.65802e-10 0 2.57738e-09 0 0 0 0 0 
0 0 3.76794e-09 0 9.82859e-07 0 0 0 0 
0 0 0 0 0 0 0 0 0 
0 0 0 0 0 0 0 0 0 
0 0 0 0 0 0 0 0 1.68442e-09 
6.70327e-09 0 1.32928e-09 0 0 0 0 0 6.51311e-07 
4.18192e-09 0 0 1.7608e-09 0 0 2.22582e-09 0 5.54994e-10 
0 0 0 0 0 1.09864e-09 0 6.72113e-07 0 
0 0 0 0 0 0 0 0 0 
7.91275e-10 0 0 0 2.83347e-09 0 0 0 9.42609e-07 
0 0 0 0 7.48253e-07 0 0 0 0 
0 0 0 0 0 0 0 1.70668e-09 0 
0 6.7775e-07 1.43005e-09 0 0 9.19374e-07 0 0 0 
1.1589e-09 0 0 0 0 0 0 0 0 
0 0 0 0 0 0 0 0 0 
0 0 0 0 0 0 0 0 0 
0 0 0 6.01625e-10 1.60408e-10 0 1.32776e-09 0 0 
2.94529e-09 2.04216e-09 0 1.43643e-09 0 0 0 0 0 
0 0 0 0 0 9.5165e-12 0 0 7.79372e-10 
0 1.36146e-09 2.53212e-09 0 0 2.39044e-09 0 0 0 
1.15992e-09 0 0 2.00846e-09 0 1.12811e-09 1.37756e-09 0 0 
6.29212e-09 0 0 9.49954e-07 0 1.38315e-09 0 3.84564e-09 0 
0 4.3756e-09 0 1.9357e-09 3.74872e-09 0 6.65643e-07 0 0 
1.71856e-09 0 3.91648e-09 1.45656e-09 3.75075e-09 0 0 0 0 
0 0 5.38444e-10 0 0 0 0 0 0 
0 0 0 0 0 0 0 0 0 
0 0 0 0 0 0 0 0 0 
0 5.33791e-09 6.77216e-07 5.5233e-09 0 5.61164e-10 0 0 0 
0 0 3.0716e-09 0 0 0 6.2823e-10 1.12035e-09 6.5222e-07 
0 1.37195e-09 0 0 0 0 0 0 0 
0 0 7.01394e-09 7.38599e-07 0 3.47891e-09 0 1.80396e-09 0 
0 1.79872e-09 0 1.61192e-09 0 0 0 0 0 
0 0 1.31106e-09 0 9.14372e-07 0 0 4.26241e-09 0 
6.97492e-07 0 0 6.86596e-07 4.76864e-09 0 0 4.75939e-09 2.88917e-09 
0 2.29085e-09 3.77376e-09 0 0 0 0 0 0 
0 6.26571e-10 0 0 0 0 0 0 0 
0 0 0 0 0 0 0 0 0 
0 0 0 0 0 0 3.03514e-10 0 0 
0 0 0 0 0 0 0 0 0 
0 0 0 0 0 0 0 0 0 
9.6225e-10 0 0 0 5.40152e-10 0 0 0 0 
1.11293e-09 0 0 0 0 0 7.67039e-07 0 5.04105e-10 
0 0 0 0 0 0 0 0 0 
0 0 0 0 0 0 0 5.17223e-10 0 
0 0 0 0 4.01098e-09 0 6.05866e-09 0 0 
0 0 0 0 0 5.25071e-09 4.81986e-09 0 0 
0 0 0 0 0 0 0 0 0 
0 0 0 0 0 0 0 0 0 
0 0 0 0 0 0 0 0 0 
0 0 0 0 3.44813e-11 3.1776e-09 0 7.27611e-10 0 
0 5.30824e-10 2.83028e-09 9.92731e-10 0 0 0 0 9.12619e-10 
7.88389e-11 0 0 0 0 0 0 0 0 
0 0 2.34111e-09 1.21407e-09 0 0 0 1.27989e-09 2.81155e-09 
3.06391e-09 0 0 0 6.80078e-07 0 0 0 0 
0 0 1.50429e-09 0 0 0 0 0 0 
0 0 7.55176e-10 0 0 0 0 6.23206e-09 0 
9.86008e-10 0 4.2969e-09 0 0 7.79082e-07 0 0 4.85691e-10 
0 0 0 0 0 0 0 0 0 
0 0 0 0 0 0 0 0 0 
0 0 0 0 0 0 0 0 0 
1.32955e-09 0 0 8.7599e-07 8.93332e-07 0 0 1.04294e-10 0 
0 0 0 6.11834e-09 0 0 0 0 0 
2.31355e-09 0 0 1.83497e-09 0 0 0 0 0 
0 0 0 0 0 0 0 8.78197e-07 1.0968e-09 
0 0 0 0 4.61437e-09 1.72322e-09 0 0 6.75121e-07 
0 1.28355e-09 0 0 6.60895e-07 0 0 0 0 
0 0 0 2.35655e-09 1.45431e-09 0 3.41015e-09 0 0 
0 0 6.84374e-07 0 0 0 0 7.67446e-07 0 
0 0 0 0 0 0 0 0 0 
0 0 0 0 0 0 0 0 0 
0 0 0 0 0 0 0 0 0 
0 1.49025e-09 0 0 0 0 5.76915e-09 0 0 
1.91278e-09 1.3874e-09 0 0 0 6.44781e-07 7.62707e-09 2.78462e-09 9.74281e-10 
0 6.09631e-10 0 1.76829e-09 6.5135e-07 2.83055e-09 1.87647e-09 0 0 
6.77099e-10 0 3.40163e-10 0 0 0 0 0 0 
0 0 0 0 4.92843e-09 0 0 0 9.89066e-10 
0 5.36541e-09 0 0 0 0 0 0 0 
1.69095e-09 0 6.59481e-07 0 0 0 2.41343e-09 3.81968e-10 0 
6.83851e-07 0 0 2.78434e-09 0 1.21933e-09 0 0 0 
0 0 0 0 0 0 0 0 0 
0 0 0 0 0 0 0 0 0 
0 0 0 0 0 0 0 0 0 
0 0 8.53166e-10 9.97752e-10 2.04056e-09 0 0 0 0 
0 0 1.41303e-09 3.84874e-10 0 0 0 0 1.71174e-09 
0 0 0 0 0 3.7407e-09 0 0 0 
0 8.39442e-10 0 0 0 0 0 9.92769e-07 1.15626e-06 
1.0498e-06 0 0 1.4988e-09 7.74652e-07 0 0 3.12515e-09 4.2391e-09 
0 0 3.12944e-09 0 0 0 0 0 0 
0 0 2.17526e-09 3.02797e-09 0 5.02809e-10 3.15141e-09 1.12638e-09 0 
1.35883e-09 0 0 0 0 6.92031e-10 0 1.70537e-09 7.25907e-10 
3.32323e-09 0 9.88782e-10 0 0 0 0 0 0 
0 0 0 0 0 0 0 0 0 
0 0 0 0 0 0 0 0 0 
0 0 0 0 0 5.43138e-09 0 0 6.90377e-09 
8.75023e-07 0 0 1.21309e-09 0 0 0 0 0 
0 0 0 0 0 9.69295e-10 1.39391e-09 0 0 
0 0 0 0 0 0 0 0 0 
1.84174e-09 0 0 0 0 0 5.43732e-09 7.35024e-07 0 
0 3.73571e-09 0 0 0 0 0 0 0 
0 4.53632e-10 0 0 0 0 0 0 6.62931e-07 
1.50639e-09 0 0 0 2.81319e-09 1.17627e-09 0 0 0 
0 0 1.26634e-10 0 0 0 0 0 0 
0 0 0 0 0 0 0 0 0 
0 0 0 0 0 0 0 0 0 
0 0 0 0 0 0 0 0 4.19892e-09 
0 8.65021e-07 0 0 0 0 0 1.14059e-09 0 
8.07489e-10 0 0 0 0 0 0 0 1.00362e-09 
0 0 0 0 0 0 0 0 0 
0 2.1593e-09 0 2.17581e-09 0 7.40948e-07 0 0 3.83915e-09 
0 0 0 0 3.7561e-10 0 0 0 0 
0 0 0 0 0 0 0 0 0 
0 0 0 0 0 2.10295e-09 0 0 0 
0 3.62949e-10 0 0 0 0 0 0 0 
0 0 0 0 0 0 0 0 0 
0 0 0 0 0 0 0 0 0 
0 0 0 0 1.10638e-09 0 1.1608e-09 0 0 
0 0 1.77667e-08 0 2.54747e-09 0 0 0 0 
0 0 0 0 0 0 0 0 0 
0 0 0 1.95836e-09 0 0 0 2.27243e-09 0 
4.39589e-09 7.09916e-07 3.09721e-09 0 0 0 7.04559e-09 3.65972e-09 5.24558e-09 
0 0 0 0 8.65206e-07 0 0 0 0 
0 0 0 0 0 0 0 2.49207e-10 0 
1.05561e-09 0 1.72283e-09 0 0 1.93655e-09 2.37162e-09 0 1.07108e-09 
1.1327e-09 3.35736e-10 0 0 0 0 0 0 0 
0 0 0 0 0 0 0 0 0 
0 0 0 0 0 0 0 0 0 
0 0 0 0 0 0 0 0 0 
0 0 1.61247e-09 0 0 0 6.01191e-10 0 0 
0 0 0 0 0 0 0 0 0 
0 0 0 0 0 2.95355e-09 6.46884e-07 5.3372e-09 1.29794e-09 
0 3.86288e-09 0 0 0 1.9798e-09 0 2.38752e-09 0 
0 0 0 0 2.30577e-09 8.61404e-07 0 3.53605e-09 1.70316e-09 
0 0 0 0 0 0 0 0 0 
0 0 0 0 3.29613e-10 6.8155e-10 0 0 2.37459e-09 
0 0 0 0 0 0 0 0 0 
5.73623e-11 0 0 0 0 0 0 0 0 
0 0 0 0 0 0 0 0 0 
0 0 0 0 0 0 0 4.18723e-09 0 
0 1.48372e-09 0 1.13763e-09 0 0 0 0 1.34873e-09 
0 0 0 0 0 0 0 0 0 
0 0 0 0 0 0 0 3.23681e-09 0 
0 0 0 2.25707e-09 0 0 1.45167e-10 0 0 
0 0 0 0 0 0 0 0 0 
0 0 0 0 0 0 0 0 0 
0 0 0 0 0 0 1.60199e-09 0 6.52663e-07 
0 1.96276e-09 0 0 0 0 0 0 0 
0 0 0 0 0 0 0 0 0 
0 0 0 0 0 0 0 0 0 
0 0 0 0 0 0 0 0 6.4426e-07 
0 0 7.64288e-10 0 2.25852e-09 3.44106e-09 0 3.92897e-10 9.79575e-10 
1.04761e-09 0 0 0 0 0 0 0 0 
0 0 0 0 0 0 0 0 7.03156e-10 
0 0 0 0 6.86692e-10 0 0 5.29925e-10 0 
0 0 0 0 0 1.38017e-09 1.11096e-10 5.1783e-09 0 
1.87408e-09 0 0 0 4.13398e-09 0 6.43713e-10 8.12956e-10 0 
0 0 0 0 0 0 0 0 3.55948e-09 
1.98046e-09 0 0 0 0 1.32858e-09 0 0 0 
0 0 0 0 0 0 0 0 0 
0 0 0 0 0 0 0 0 0 
0 0 0 0 0 0 0 0 1.99206e-09 
1.39207e-09 0 2.3676e-10 0 0 0 1.08259e-09 0 0 
0 0 0 0 0 0 0 0 0 
0 0 0 0 1.15362e-09 0 0 0 9.75122e-10 
0 0 0 0 0 6.4972e-10 0 0 0 
0 0 0 0 0 0 0 0 0 
0 0 2.43095e-09 0 1.34759e-09 6.82887e-07 0 3.02795e-09 0 
0 0 0 0 0 0 0 0 0 
0 0 0 0 0 0 0 1.46621e-09 0 
0 0 0 0 0 0 0 0 0 
0 0 0 0 0 0 0 0 0 
0 0 0 0 0 0 0 0 0 
0 2.29544e-09 1.64698e-09 1.25521e-09 0 0 0 3.27203e-09 6.59611e-07 
4.57574e-09 0 0 0 0 0 0 0 0 
5.17904e-10 2.5154e-10 0 0 4.26637e-10 1.0508e-09 0 0 0 
0 0 0 0 0 0 0 5.35813e-10 0 
0 0 0 0 0 0 0 0 1.38258e-09 
0 0 2.61473e-09 7.73111e-10 0 0 0 0 3.24255e-09 
0 0 0 0 0 0 0 0 0 
1.28463e-09 0 0 0 0 2.0063e-09 0 0 0 
5.42673e-11 0 0 0 0 0 0 0 0 
0 0 0 0 0 0 0 0 0 
0 0 0 0 0 0 0 0 0 
0 6.20574e-10 0 0 1.03061e-09 0 0 0 0 
0 0 4.29988e-09 9.94844e-12 6.73163e-07 0 0 1.4614e-09 0 
0 0 0 0 0 2.92615e-10 0 8.58287e-10 0 
0 0 0 0 9.1803e-10 0 0 2.62316e-09 0 
0 0 0 0 0 0 0 0 0 
0 6.38446e-10 0 0 0 6.79142e-07 6.46896e-09 0 0 
4.00612e-09 0 0 0 0 0 0 0 0 
0 7.55203e-10 1.97191e-09 0 6.52687e-07 4.24797e-09 0 0 2.66341e-09 
0 1.64017e-09 0 0 0 0 0 0 0 
0 0 0 0 0 0 0 0 0 
0 0 0 0 0 0 0 0 0 
0 0 0 0 0 0 0 0 0 
0 0 0 0 0 0 0 0 0 
0 0 0 0 3.82712e-09 0 0 2.64364e-09 0 
0 0 2.75681e-09 0 0 0 2.58624e-09 6.45408e-07 0 
4.55555e-09 0 0 0 0 0 0 0 0 
6.4708e-07 4.45108e-09 0 1.40111e-09 0 0 0 3.36544e-11 0 
1.48142e-08 6.63073e-07 0 2.16541e-09 0 0 0 0 0 
0 0 1.21564e-09 0 0 0 0 0 0 
0 0 8.56466e-07 0 0 0 0 0 0 
0 0 0 0 0 0 0 0 0 
0 0 0 0 0 0 0 0 0 
0 0 0 0 0 0 0 0 0 
0 0 0 0 0 0 4.92411e-09 0 0 
1.23433e-09 2.45045e-10 0 0 9.57537e-10 0 6.70984e-07 0 3.58547e-09 
0 0 0 0 0 0 2.35141e-09 5.00467e-10 0 
0 0 5.37829e-10 0 0 0 0 0 0 
0 0 1.31972e-09 0 0 0 3.43242e-09 0 0 
0 0 0 2.66262e-09 0 0 0 0 0 
0 0 0 0 0 0 0 0 8.16478e-10 
0 2.72424e-09 0 8.56712e-07 5.08491e-09 0 0 0 0 
0 0 0 0 0 0 0 0 0 
0 0 0 0 0 0 0 0 0 
0 0 0 0 0 0 0 0 1.14415e-09 
0 1.80133e-09 0 0 0 7.81457e-09 6.95574e-07 2.82539e-09 2.80201e-09 
9.64352e-10 2.72045e-09 0 0 0 0 0 0 0 
0 0 0 8.14089e-07 0 1.17919e-09 0 1.8321e-09 0 
0 0 6.29283e-11 0 0 0 0 0 0 
2.32261e-09 1.46109e-11 0 0 0 0 0 0 0 
5.50804e-10 0 0 0 0 0 1.12182e-10 0 0 
0 0 0 0 0 0 1.9774e-09 0 0 
0 0 0 0 0 0 1.29817e-09 0 3.11643e-10 
0 0 0 0 0 0 0 0 0 
0 0 0 0 0 0 0 0 0 