# vtk DataFile Version 5.1
vtk output
ASCII
DATASET STRUCTURED_POINTS
DIMENSIONS 100 100 1
SPACING 1 1 1
ORIGIN 0 0 0
POINT_DATA 10000
FIELD FieldData 6
feature_1 1 10000 float
0 0 0 0 0 0 0 0 0 
0 0 0 0 0 0 0 0 0 
0 0 0 0 0 0 0 0 0 
0 0 0 0 0 0 0 0 0 
0 0 0 0 0 0 0 0 0 
0 0 0 0 0 0 0 0 0 
0 0 0 0 0 0 0 0 0 
0 0 0 0 0 0 0 0 0 
0 0 0 0 0 0 0 0 0 
0 0 0 0 0 0 0 0 0 
0 0 0 0 0 0 0 0 0 
0 0 0 0 0 0 0 0 0 
0 0 0 0 0 0 0 0 0 
0 0 0 0 0 0 0 0 0 
0 0 0 0 0 0 0 0 0 
0 0 0 0 0 0 0 0 0 
0 0 0 0 0 0 0 0 0 
0 0 0 0 0 0 0 0 0 
0 0 0 0 0 0 0 0 0 
0 0 0 0 0 0 0 0 0 
0 0 0 0 0 0 0 0 0 
0 0 0 0 0 0 0 0 0 
0 0 0 0 0 0 0 0 0 
0 0 0 0 0 0 0 0 0 
0 0 0 0 0 0 0 0 0 
0 0 0 0 0 0 0 0 0 
0 0 0 0 0 0 0 0 0 
0 0 0 0 0 0 0 0 0 
0 0 0 0 0 0 0 0 0 
0 0 0 0 0 0 0 0 0 
0 0 0 0 0 0 0 0 0 
0 0 0 0 0 0 0 0 0 
0 0 0 0 0 0 0 0 0 
0 0 0 0 0 0 0 0 0 
0 0 0 0 0 0 0 0 0 
0 0 0 0 0 0 0 0 0 
0 0 0 0 0 0 0 0 0 
0 0 0 0 0 0 0 0 0 
0 0 0 0 0 0 0 0 0 
0 0 0 0 0 0 0 0 0 
0 0 0 0 0 0 0 0 0 
0 0 0 0 0 0 0 0 0 
0 0 0 0 0 0 0 0 0 
0 0 0 0 0 0 0 0 0 
0 0 0 0 0 0 0 0 0 
0 0 0 0 0 0 0 0 0 
0 0 0 0 0 0 0 0 0 
0 0 0 0 0 0 0 0 0 
0 0 0 0 0 0 0 0 0 
0 0 0 0 0 0 0 0 0 
0 0 0 0 0 0 0 0 0 
0 0 0 0 0 0 0 0 0 
0 0 0 0 0 0 0 0 0 
0 0 0 0 0 0 0 0 0 
0 0 0 0 0 0 0 0 0 
0 0 0 0 0 0 0 0 0 
0 0 0 0 0 0 0 0 0 
0 0 0 0 0 0 0 0 0 
0 0 0 0 0 0 0 0 0 
0 0 0 0 0 0 0 0 0 
0 0 0 0 0 0 0 0 0 
0 0 0 0 0 0 0 0 0 
0 0 0 0 0 0 0 0 0 
0 0 0 0 0 0 0 0 0 
0 0 0 0 0 0 0 0 0 
0 0 0 0 0 0 0 0 0 
0 0 0 0 0 0 0 0 0 
0 0 0 0 0 0 0 0 0 
0 0 0 0 0 0 0 0 0 
0 0 0 0 0 0 0 0 0 
0 0 0 0 0 0 0 0 0 
0 0 0 0 0 0 0 0 0 
0 0 0 0 0 0 0 0 0 
0 0 0 0 0 0 0 0 0 
0 0 0 0 0 0 0 0 0 
0 0 0 0 0 0 0 0 0 
0 0 0 0 0 0 0 0 0 
0 0 0 0 0 0 0 0 0 
0 0 0 0 0 0 0 0 0 
0 0 0 0 0 0 0 0 0 
0 0 0 0 0 0 0 0 0 
0 0 0 0 0 0 0 0 0 
0 0 0 0 0 0 0 0 0 
0 0 0 0 0 0 0 0 0 
0 0 0 0 0 0 0 0 0 
0 0 0 0 0 0 0 0 0 
0 0 0 0 0 0 0 0 0 
0 0 0 0 0 0 0 0 0 
0 0 0 0 0 0 0 0 0 
0 0 0 0 0 0 0 0 0 
0 0 0 0 0 0 0 0 0 
0 0 0 0 0 0 0 0 0 
0 0 0 0 0 0 0 0 0 
0 0 0 0 0 0 0 0 0 
0 0 0 0 0 0 0 0 0 
0 0 0 0 0 0 0 0 0 
0 0 0 0 0 0 0 0 0 
0 0 0 0 0 0 0 0 0 
0 0 0 0 0 0 0 0 0 
0 0 0 0 0 0 0 0 0 
0 0 0 0 0 0 0 0 0 
0 0 0 0 0 0 0 0 0 
0 0 0 0 0 0 0 0 0 
0 4.24046e-11 0 0 0 0 0 0 0 
0 0 0 0 0 0 0 6.56909e-10 0 
0 0 0 0 0 0 0 0 0 
0 0 0 0 0 0 0 0 0 
0 0 0 0 0 0 0 0 0 
0 0 0 0 0 0 0 0 0 
0 0 0 0 0 0 0 0 0 
0 0 0 0 0 0 0 0 0 
0 0 0 0 0 0 0 0 0 
0 0 0 0 0 0 0 0 0 
0 0 0 0 0 0 0 0 0 
0 0 0 0 0 0 0 0 0 
0 0 0 0 0 0 0 0 0 
0 1.72973e-09 0 0 0 0 0 0 0 
0 0 0 0 0 0 0 2.36684e-09 0 
0 0 0 0 0 0 0 0 0 
0 0 0 0 0 5.22633e-10 0 0 0 
0 0 0 0 0 0 0 0 0 
0 0 0 0 0 0 0 0 0 
0 0 0 0 0 0 0 0 0 
0 0 0 0 0 0 0 0 0 
0 0 0 0 0 0 0 0 0 
0 0 0 0 0 0 0 0 0 
0 0 0 0 0 0 0 0 1.66285e-09 
0 0 0 0 0 0 0 0 0 
0 0 0 0 0 0 0 0 0 
0 0 0 0 0 0 0 0 0 
0 0 0 0 4.46441e-10 0 0 0 0 
0 0 0 0 0 0 0 0 0 
0 0 0 0 0 0 0 0 0 
0 0 0 0 0 0 0 0 0 
0 0 0 0 0 0 0 0 0 
0 0 0 0 0 0 0 0 0 
0 0 0 0 0 0 0 0 0 
0 0 0 0 0 0 0 0 0 
0 0 0 7.84779e-07 6.74862e-09 2.16239e-09 0 0 0 
0 0 0 0 0 0 0 1.31543e-09 6.4053e-07 
1.38591e-09 0 0 0 0 0 0 0 0 
0 0 0 0 0 0 0 5.33555e-10 0 
0 0 0 0 0 0 0 0 0 
0 0 0 0 0 0 0 0 0 
0 0 0 0 0 0 0 0 0 
0 0 0 0 0 0 0 0 0 
0 0 0 0 0 0 0 0 0 
0 0 0 0 0 0 5.40736e-10 0 0 
0 0 0 1.37352e-09 1.51818e-10 0 0 0 0 
3.18241e-09 0 0 8.24806e-07 0 6.51308e-09 0 0 0 
8.07929e-10 0 0 0 0 6.20802e-10 0 0 0 
0 0 1.87131e-09 1.15541e-09 0 0 0 0 0 
0 0 0 0 0 0 0 0 0 
0 1.51864e-09 0 0 0 0 0 0 0 
0 0 0 0 0 0 0 0 0 
0 0 0 0 0 0 0 0 0 
0 0 0 0 0 0 0 0 0 
0 0 0 0 0 0 0 0 0 
0 0 0 0 4.4395e-09 6.42466e-07 0 1.53061e-09 0 
0 0 0 1.4828e-09 0 8.11196e-09 0 0 1.1877e-09 
0 0 0 0 0 0 0 0 0 
0 0 0 0 0 0 0 0 6.39602e-10 
0 0 0 0 0 0 0 0 0 
0 0 0 0 0 0 1.52955e-09 0 0 
6.41954e-07 1.43405e-09 0 0 0 0 0 0 0 
0 0 0 0 0 0 0 0 0 
0 0 0 0 0 0 0 0 0 
0 0 0 0 0 0 0 0 0 
0 0 0 0 0 0 0 0 0 
0 0 0 0 0 0 0 0 0 
8.68814e-10 0 0 0 0 3.89103e-09 6.4217e-07 4.8189e-09 2.74259e-09 
0 0 0 0 0 0 7.89039e-07 0 0 
6.7874e-10 0 0 0 0 0 0 0 0 
0 0 1.30099e-09 0 0 0 0 0 0 
0 0 0 0 9.6898e-10 0 0 0 0 
0 3.87499e-10 0 0 0 0 0 0 0 
0 0 0 0 0 0 0 0 0 
0 0 0 0 0 0 0 0 0 
0 0 0 0 0 0 0 0 0 
0 0 0 0 0 0 0 0 0 
0 0 0 0 0 0 1.816e-09 0 0 
0 0 0 0 0 0 2.34588e-09 0 0 
0 0 0 0 0 7.34168e-07 1.24176e-08 0 0 
0 0 6.83612e-07 0 0 1.16975e-09 0 0 0 
0 0 0 0 1.52181e-09 0 1.75249e-09 0 1.98117e-09 
0 0 0 7.76856e-10 0 0 0 0 0 
0 0 0 0 0 0 0 0 0 
8.32769e-11 0 0 0 0 0 0 0 0 
0 0 0 0 0 0 0 0 0 
0 0 0 0 0 0 0 0 0 
0 0 0 0 0 0 0 0 0 
0 0 0 0 0 6.11134e-10 0 5.26798e-09 0 
1.63144e-09 0 0 3.87957e-10 0 0 0 0 2.36373e-09 
0 0 0 0 0 0 0 0 0 
0 0 0 0 0 0 1.17949e-09 3.45763e-10 3.01363e-10 
0 0 0 0 0 0 0 7.13285e-07 0 
7.13078e-07 8.47687e-09 0 0 0 0 0 0 6.61857e-07 
0 0 0 0 0 0 0 0 0 
0 0 0 0 0 0 0 0 0 
0 0 0 0 0 0 0 0 0 
0 0 0 0 0 0 0 0 0 
0 0 0 0 0 0 0 0 0 
0 0 0 0 0 3.748e-09 0 1.36589e-09 0 
0 0 0 0 0 0 0 0 0 
0 1.41175e-09 0 4.67979e-09 5.55906e-09 0 0 0 0 
0 0 0 0 0 0 1.73268e-09 0 0 
0 0 0 0 0 1.32941e-09 0 0 0 
0 0 2.53244e-09 0 0 3.18066e-10 0 0 0 
0 0 1.99331e-09 2.37908e-09 1.66086e-09 0 0 0 0 
0 0 0 0 0 0 0 0 0 
0 0 0 0 0 0 0 0 0 
0 0 0 0 0 0 0 0 0 
0 0 0 0 0 0 0 0 0 
0 0 0 0 0 0 0 2.13889e-09 0 
4.0217e-09 6.45022e-07 8.17479e-10 0 0 0 0 0 0 
0 0 0 0 6.45981e-07 0 0 0 0 
0 8.89318e-07 9.05647e-07 0 2.25385e-09 7.12946e-07 0 0 0 
0 0 0 0 0 0 0 1.74543e-09 0 
0 1.74415e-09 8.54407e-10 0 0 1.23492e-09 0 0 0 
2.03869e-09 0 0 1.21796e-09 0 0 0 0 0 
0 0 0 0 0 0 0 7.82989e-10 0 
0 0 0 0 0 0 0 0 0 
0 0 0 0 0 0 0 0 0 
0 0 0 0 0 0 0 0 0 
0 0 0 7.77118e-10 2.20812e-09 4.51749e-09 6.42414e-07 5.49144e-09 0 
0 2.77864e-09 3.52137e-09 0 0 0 0 0 0 
0 0 0 0 0 0 0 0 1.72569e-09 
0 0 0 0 0 0 2.03028e-09 0 1.14626e-09 
0 0 0 0 0 0 0 0 0 
0 0 3.65418e-10 0 0 0 0 0 0 
0 0 9.97761e-10 0 0 0 0 0 0 
4.22137e-10 0 0 0 0 0 1.42342e-09 1.5009e-09 0 
0 0 0 0 0 0 0 0 0 
0 0 0 0 0 0 0 0 0 
0 0 0 0 0 0 0 0 0 
0 0 0 0 0 0 0 0 5.24085e-09 
2.17805e-09 0 1.18722e-09 0 0 6.73431e-10 0 0 0 
0 5.54817e-10 0 0 0 0 0 0 6.52783e-10 
1.91819e-09 0 0 0 0 0 0 3.59346e-09 0 
1.27467e-09 0 0 0 0 2.55679e-10 0 0 0 
0 0 0 0 0 1.38012e-09 0 0 0 
0 0 0 0 0 0 0 0 1.52475e-09 
0 4.92253e-10 0 0 0 0 0 1.27232e-09 0 
0 0 0 0 0 0 0 0 0 
0 0 0 0 0 0 0 0 0 
0 0 0 0 0 0 0 0 0 
0 0 0 0 1.46879e-09 0 0 0 0 
0 0 0 0 1.02649e-09 0 0 0 0 
0 0 0 0 0 0 9.53746e-10 8.88092e-10 0 
5.59089e-10 0 0 0 0 1.98195e-09 0 0 0 
0 3.96507e-10 1.48556e-09 0 0 0 0 0 0 
0 0 0 0 0 0 0 4.71592e-09 0 
1.9887e-10 0 0 0 0 1.66897e-09 0 0 7.79075e-10 
0 0 0 0 0 0 0 0 0 
7.13077e-07 0 0 1.63859e-09 0 0 0 0 0 
0 0 0 0 0 0 0 0 0 
0 0 0 0 0 0 0 0 0 
0 0 0 0 0 1.71972e-10 0 0 0 
9.90116e-10 6.83744e-10 0 4.24599e-10 0 0 0 9.68797e-10 0 
0 0 0 4.37175e-10 0 0 7.71161e-10 0 0 
5.77546e-10 0 0 0 1.64995e-09 0 0 8.68573e-07 8.65897e-07 
0 0 0 0 0 0 0 0 0 
3.54598e-10 0 0 0 0 0 0 0 6.4256e-07 
0 0 0 4.05569e-10 0 0 0 0 0 
0 6.50412e-07 7.78149e-09 0 0 0 0 0 0 
5.68944e-09 1.79237e-09 0 0 0 0 0 0 0 
0 0 0 0 0 0 0 0 0 
0 0 0 0 0 0 0 0 0 
6.49284e-10 0 0 0 0 0 0 1.44773e-09 0 
0 6.28646e-10 0 0 0 0 0 0 0 
1.63397e-09 0 0 0 0 7.63511e-10 0 0 0 
0 0 0 0 0 0 0 1.60889e-10 3.3729e-09 
0 0 2.28761e-09 0 3.15079e-10 1.13281e-09 6.41215e-07 1.96995e-09 0 
1.1673e-09 0 0 0 0 0 0 2.78276e-09 0 
0 0 0 0 0 0 4.71255e-09 0 0 
0 0 1.62282e-09 0 3.56675e-09 0 0 0 0 
1.20553e-09 0 7.19659e-07 1.80362e-09 0 2.65854e-10 0 0 0 
0 0 0 0 0 0 0 0 0 
0 0 0 0 0 0 0 0 0 
0 1.05421e-09 0 1.25695e-09 1.38625e-09 0 0 1.16488e-09 0 
0 0 0 1.99287e-10 0 0 0 0 0 
0 0 2.87442e-09 0 1.18731e-09 0 1.17245e-09 0 0 
0 0 0 0 0 0 0 2.20639e-09 0 
4.40286e-09 8.484e-11 0 0 2.35257e-09 0 7.0473e-10 2.62541e-09 0 
0 0 1.02033e-09 0 0 0 0 6.05749e-10 0 
5.82092e-10 0 1.96386e-09 0 0 0 9.60647e-09 6.49346e-07 5.16302e-09 
0 0 0 0 0 0 0 6.97455e-10 0 
0 0 4.12277e-09 0 0 0 0 0 0 
0 0 0 0 0 0 0 0 0 
0 0 0 0 0 0 0 0 0 
0 0 0 0 0 0 0 0 0 
7.1204e-07 0 0 0 0 0 0 0 0 
0 0 4.32868e-09 6.42823e-07 0 0 1.88783e-09 0 6.93419e-07 
0 2.66228e-09 1.47458e-09 0 0 0 0 1.16916e-09 0 
0 0 0 0 0 0 0 0 0 
0 0 0 0 0 0 0 0 0 
0 0 1.38175e-09 0 0 0 0 0 3.41125e-09 
0 0 2.92918e-09 0 0 0 0 0 0 
0 0 0 3.09752e-09 0 0 1.26145e-09 0 0 
0 0 0 0 0 0 0 0 0 
0 0 0 0 0 0 0 0 0 
0 0 0 6.54668e-07 0 0 0 0 7.67649e-07 
0 0 0 0 0 0 0 0 0 
0 0 1.14476e-09 1.38273e-09 0 0 0 0 0 
0 0 6.99896e-07 0 0 3.7479e-09 0 0 0 
0 1.33222e-09 3.20815e-09 0 0 7.26724e-10 0 0 0 
1.03545e-09 0 0 0 0 0 0 0 3.12143e-10 
0 1.10552e-09 0 0 0 0 0 0 0 
0 0 0 0 0 6.5122e-07 0 0 0 
0 4.00543e-10 0 0 1.02155e-09 0 0 0 0 
0 0 0 0 0 0 0 0 0 
0 0 0 0 0 0 0 0 0 
0 0 1.78328e-09 3.67894e-09 0 0 0 0 0 
0 0 3.89332e-09 2.28035e-09 0 0 8.24582e-10 0 0 
0 0 0 0 0 0 0 0 0 
1.97351e-09 0 0 0 0 0 2.70313e-09 5.98073e-09 0 
0 6.0535e-09 6.98282e-07 0 0 0 0 0 0 
4.54874e-10 0 0 0 0 2.83758e-09 4.27436e-09 0 0 
0 0 0 0 0 0 1.83256e-09 0 0 
0 0 2.34649e-09 0 0 0 0 0 0 
0 0 0 0 0 6.6764e-07 0 0 0 
3.57302e-10 0 0 0 0 0 0 0 0 
0 0 0 0 0 0 0 0 0 
0 0 0 6.72127e-10 5.07016e-10 0 0 0 7.045e-07 
9.27452e-09 0 7.35875e-07 4.37356e-09 2.46002e-09 0 0 0 0 
0 9.68862e-10 0 0 0 0 0 8.86312e-10 0 
0 1.10055e-09 1.40676e-09 0 0 0 0 0 0 
0 0 0 7.75579e-09 0 0 0 0 0 
0 0 0 0 1.21297e-09 0 6.54189e-07 4.91877e-09 2.97823e-09 
0 0 0 0 0 0 6.45944e-07 2.14908e-09 1.85106e-09 
0 0 7.04763e-09 3.65879e-09 2.56132e-09 0 0 0 4.80348e-10 
0 0 1.08515e-09 0 0 0 0 3.70079e-10 0 
0 0 0 0 0 0 0 0 0 
0 0 0 0 0 0 0 0 0 
0 0 0 0 0 0 2.51141e-09 2.64997e-09 0 
0 0 0 0 0 0 0 1.08781e-09 3.01808e-09 
0 0 0 0 0 0 0 0 0 
0 0 0 0 0 0 0 0 0 
6.95553e-07 0 0 7.17187e-07 4.73501e-09 0 0 0 0 
0 0 0 0 0 0 0 3.09019e-09 0 
0 0 0 1.86556e-09 1.52488e-09 0 4.71065e-09 0 3.59241e-09 
0 0 4.63902e-09 6.46156e-07 0 0 1.25637e-09 0 1.08854e-09 
0 0 0 0 2.28859e-09 0 0 0 0 
0 0 0 0 0 0 0 0 0 
0 0 0 0 0 0 0 0 0 
0 0 0 0 0 0 0 0 0 
0 0 0 1.89316e-09 1.27102e-09 0 1.90203e-09 3.28533e-09 3.14552e-10 
0 8.63868e-07 0 0 0 0 0 0 0 
0 0 0 0 0 0 0 7.14482e-07 0 
5.92399e-09 0 0 0 0 0 0 0 0 
0 0 0 8.55858e-10 1.69925e-09 0 1.87733e-09 4.18032e-09 0 
2.35401e-09 0 0 0 0 0 0 3.75222e-10 0 
0 0 0 0 0 0 0 9.53528e-10 0 
3.93209e-10 0 0 0 2.99618e-09 0 0 6.70782e-07 0 
0 0 0 0 0 0 0 0 0 
0 0 0 0 0 0 0 0 0 
0 0 0 0 0 0 0 0 0 
0 0 1.31026e-09 0 1.55621e-09 0 0 0 0 
3.76009e-09 1.52452e-09 8.76928e-07 0 0 0 0 0 3.97302e-10 
0 0 0 0 0 2.96808e-09 0 6.21781e-09 0 
0 0 3.00534e-09 2.96046e-09 0 0 0 0 0 
0 0 0 0 0 1.34448e-09 0 5.3614e-07 0 
0 3.47438e-09 0 0 0 0 2.72782e-09 3.2649e-09 0 
0 0 1.05903e-09 2.23909e-09 3.9712e-10 0 0 0 0 
0 0 0 0 0 0 1.93075e-09 0 0 
0 0 0 0 0 0 0 0 0 
0 0 0 0 0 0 0 0 0 
0 0 0 0 0 0 0 0 0 
0 0 0 0 0 0 0 0 0 
0 0 0 0 0 0 6.78679e-07 4.26162e-09 0 
0 6.52584e-10 0 0 0 0 0 0 0 
0 0 0 0 0 0 0 0 0 
0 0 0 0 0 0 0 0 5.5892e-09 
0 0 0 0 7.41248e-07 0 7.96222e-07 0 0 
0 0 0 0 0 0 0 0 0 
0 0 0 0 0 3.66341e-09 6.51602e-07 0 0 
0 0 0 0 0 0 0 0 0 
0 0 0 0 0 0 0 0 0 
0 0 0 0 0 0 0 0 0 
0 0 0 0 0 0 0 0 0 
2.24187e-09 1.60721e-09 0 0 6.72372e-10 4.85301e-09 1.44232e-09 4.82056e-09 8.43067e-10 
0 1.75595e-09 0 0 0 0 0 0 0 
8.90433e-07 9.04467e-07 0 3.91065e-09 0 5.36239e-10 0 0 4.78114e-09 
0 0 0 0 0 0 0 0 0 
4.58988e-10 1.69965e-09 2.00162e-09 0 0 0 0 3.92414e-09 0 
1.54399e-09 0 0 0 0 1.08638e-09 0 0 0 
1.01591e-10 0 0 0 0 0 2.54846e-09 2.42724e-09 0 
2.39948e-09 2.82822e-09 0 0 0 0 0 0 0 
0 0 0 0 0 0 0 0 0 
0 0 0 0 0 0 0 0 0 
0 0 0 0 0 0 0 0 0 
0 0 0 2.36999e-09 0 0 0 0 0 
0 5.99042e-10 0 0 0 0 0 0 0 
0 0 0 0 0 0 0 0 3.74276e-09 
0 0 2.23312e-09 0 3.80522e-09 0 0 0 0 
0 2.70459e-09 0 0 0 0 0 0 3.6372e-09 
0 0 0 7.28366e-07 0 1.59544e-09 0 0 0 
0 0 0 0 0 0 0 0 0 
0 0 0 0 0 0 0 0 0 
0 0 0 0 0 0 0 0 0 
0 0 0 0 0 0 0 0 0 
0 0 0 0 0 0 0 0 0 
0 0 0 3.82739e-09 7.07976e-07 0 9.07786e-09 0 0 
4.28698e-09 3.64708e-09 0 2.42544e-09 0 0 0 0 1.13252e-09 
0 0 0 0 0 0 0 0 0 
0 7.5442e-07 0 0 0 6.54074e-07 0 0 0 
0 7.53298e-10 0 0 0 0 0 0 0 
8.22586e-07 0 0 0 2.85664e-09 0 0 0 4.44213e-10 
0 0 0 0 0 0 0 0 0 
0 0 0 2.23759e-10 0 0 0 0 0 
0 0 0 0 0 0 0 0 0 
0 0 0 0 0 0 0 0 0 
0 0 0 6.36368e-10 0 0 0 0 0 
0 0 0 0 0 0 0 7.71082e-07 4.55819e-09 
0 0 0 6.49279e-07 0 0 1.49111e-09 0 0 
0 1.641e-09 0 0 7.05146e-07 0 0 0 0 
0 0 1.07466e-08 0 0 0 4.38086e-09 0 0 
0 0 0 0 0 0 7.78962e-10 0 0 
0 0 9.45603e-10 0 7.40571e-07 6.75608e-09 0 0 0 
0 0 0 0 0 0 0 0 0 
0 0 0 0 0 0 0 0 0 
0 0 0 0 0 0 0 0 0 
0 0 0 0 0 0 0 0 0 
0 0 0 0 0 0 1.11993e-09 0 0 
0 0 0 0 3.06663e-10 0 0 0 5.55304e-09 
0 0 0 3.65409e-09 4.8256e-09 0 1.35246e-09 0 0 
0 0 5.01451e-10 0 0 0 0 9.89637e-10 0 
0 8.70777e-07 0 8.12402e-07 2.57974e-09 4.25859e-09 0 3.9527e-10 1.98401e-09 
1.36822e-09 0 0 0 0 0 0 0 0 
0 0 2.66763e-09 0 0 0 0 0 0 
0 0 0 0 0 0 0 0 0 
0 0 0 0 0 0 0 0 0 
0 0 0 0 0 0 0 0 0 
0 0 0 0 0 0 0 0 0 
0 0 0 0 0 0 0 0 0 
5.36782e-10 0 0 2.76954e-10 0 0 2.09611e-09 2.2069e-09 1.05753e-08 
7.26073e-07 0 0 1.59171e-09 0 0 0 0 0 
0 0 0 0 4.83323e-10 0 0 9.35157e-09 0 
0 8.49469e-07 0 0 0 0 0 0 0 
0 0 0 0 0 6.62146e-07 0 3.58381e-09 0 
0 1.9196e-09 0 0 4.32096e-09 0 0 0 0 
0 4.21418e-10 0 0 0 0 0 0 0 
0 0 6.10872e-10 0 0 0 0 7.28779e-10 0 
0 0 0 0 0 0 0 0 0 
0 0 0 0 0 0 0 0 0 
0 0 0 0 0 0 0 6.39926e-07 0 
0 0 0 0 0 0 0 0 0 
0 0 0 0 1.88942e-09 1.1949e-09 0 0 3.93607e-10 
0 0 0 0 0 0 0 0 0 
7.47013e-07 0 0 0 0 0 0 0 0 
0 0 0 0 0 0 5.05835e-09 0 3.66067e-09 
0 0 0 0 0 0 2.67929e-09 0 1.62329e-09 
9.57779e-10 0 0 0 0 0 0 0 0 
0 0 0 0 0 0 0 0 0 
0 0 0 0 0 0 0 0 0 
0 0 0 0 0 0 0 0 0 
0 0 0 0 0 0 2.21889e-09 2.2896e-09 0 
0 0 0 0 0 4.91937e-10 0 5.97907e-10 0 
1.51943e-09 1.39595e-09 1.64126e-10 0 0 0 0 0 0 
0 0 0 0 0 9.22895e-10 0 2.96423e-09 0 
0 0 0 0 0 0 0 1.48734e-09 0 
0 0 0 0 0 0 0 0 0 
4.52319e-09 0 0 8.37282e-07 0 8.33234e-07 9.26321e-09 0 0 
0 0 0 0 0 0 0 0 0 
4.02754e-10 0 0 0 3.64827e-09 0 0 0 0 
2.06287e-09 0 0 0 0 0 0 0 0 
0 0 0 0 0 0 0 0 0 
0 0 0 0 0 0 0 0 0 
0 0 0 0 1.61876e-09 0 0 0 0 
0 0 0 0 0 0 0 0 0 
0 0 0 0 0 0 0 0 0 
1.93214e-09 0 4.74836e-09 0 0 4.52031e-09 0 0 0 
0 0 0 0 0 0 0 0 0 
6.70167e-07 2.72828e-09 0 0 0 8.71661e-07 0 3.80734e-09 2.85312e-09 
7.13298e-10 0 0 0 0 0 0 0 3.14272e-10 
0 0 0 0 4.19136e-09 0 0 0 7.10404e-07 
0 0 0 4.00878e-10 0 0 0 0 0 
0 0 0 0 0 0 0 0 0 
0 0 0 0 0 0 0 0 0 
0 0 0 0 0 0 0 6.40074e-07 0 
0 0 0 0 0 0 0 3.65392e-10 0 
0 0 0 0 6.44359e-07 0 0 0 0 
0 0 0 0 8.98034e-07 8.84269e-07 0 0 0 
0 0 0 0 0 0 0 0 0 
2.95835e-09 9.34813e-09 0 0 0 1.72912e-09 0 0 1.74564e-09 
0 0 0 0 0 5.07207e-10 0 0 0 
1.45913e-09 0 0 0 0 5.60631e-09 6.93388e-07 0 0 
0 0 4.36662e-10 0 0 0 0 0 0 
0 0 0 0 0 0 0 0 0 
0 0 0 0 0 0 0 0 0 
0 0 0 0 0 0 0 1.28787e-09 1.89703e-09 
0 0 0 0 0 0 0 0 0 
0 0 0 0 0 0 0 2.27256e-09 0 
0 0 0 0 0 1.13113e-08 0 0 0 
0 0 0 0 0 0 0 0 9.00359e-10 
0 0 0 0 0 0 0 0 0 
0 0 3.16931e-10 0 0 0 0 0 0 
0 0 1.67758e-09 0 0 0 0 1.84581e-09 0 
4.97253e-09 0 7.04774e-07 0 0 0 0 0 0 
0 0 0 0 0 0 0 0 0 
0 0 0 0 0 0 0 0 0 
0 0 0 0 0 0 0 0 0 
0 0 0 0 0 0 0 0 0 
0 0 0 0 0 2.57555e-09 0 0 0 
0 0 0 0 7.22354e-10 0 0 9.53188e-10 3.31108e-09 
0 0 0 0 7.03097e-10 0 0 0 0 
0 0 0 0 0 0 1.73993e-09 0 2.97422e-09 
2.7681e-09 0 0 0 0 0 0 0 0 
0 0 0 0 0 0 6.8151e-07 1.00397e-09 1.53084e-09 
0 0 4.02163e-09 2.51327e-09 0 0 0 0 0 
0 0 0 0 0 0 0 0 0 
0 0 0 0 0 0 0 0 0 
0 0 0 0 0 0 0 0 0 
0 0 0 5.31132e-10 0 0 0 0 0 
0 0 0 0 0 0 0 1.85056e-09 0 
0 0 0 0 1.92506e-09 3.25593e-09 6.71993e-07 0 0 
0 0 1.21653e-09 0 0 0 0 0 0 
0 0 0 0 0 0 0 0 0 
0 0 0 0 0 0 3.74677e-09 0 1.13069e-09 
1.21793e-09 0 0 6.49799e-07 0 1.70876e-09 0 0 0 
3.65542e-09 0 0 0 0 2.39354e-09 0 0 0 
0 0 0 0 0 0 0 0 0 
0 0 0 0 0 0 0 0 0 
0 0 0 0 0 1.85412e-09 0 0 0 
6.2317e-10 0 0 0 0 0 0 0 0 
0 0 0 0 0 0 6.44353e-07 0 0 
0 0 0 0 0 0 0 0 3.14624e-09 
0 0 0 0 0 0 0 0 0 
0 0 0 0 0 0 0 0 0 
0 0 1.41196e-09 0 0 2.29221e-09 5.72418e-09 6.45111e-07 0 
0 0 0 0 8.74115e-09 0 0 0 0 
0 1.54335e-09 0 0 0 0 0 0 0 
0 5.2688e-10 0 0 0 0 0 0 0 
0 0 0 0 0 0 0 0 0 
0 0 0 0 0 0 6.406e-07 4.27089e-09 1.62968e-09 
0 0 0 0 0 0 0 0 0 
0 0 0 0 0 1.15079e-09 2.20481e-09 0 0 
0 0 6.04169e-10 0 0 0 0 1.2529e-09 0 
2.51199e-09 0 0 8.22433e-10 0 0 1.49119e-09 6.71544e-07 0 
0 7.97374e-10 0 0 0 0 0 0 0 
0 0 0 0 0 0 0 2.70248e-09 0 
0 1.31208e-10 0 0 0 0 0 0 1.12015e-09 
0 0 0 4.03776e-09 0 0 0 6.55666e-07 0 
0 0 0 0 0 0 0 0 0 
0 0 0 0 0 0 0 0 0 
0 0 0 0 8.38094e-10 0 0 0 2.71892e-09 
0 0 0 0 0 0 0 0 0 
0 0 0 0 0 0 0 0 7.1672e-10 
0 1.32664e-09 7.0206e-10 5.9779e-10 0 0 0 0 0 
0 0 0 0 6.78825e-10 0 2.33853e-09 0 0 
0 0 0 0 0 0 0 0 0 
0 1.58912e-10 0 0 0 6.44384e-07 4.5053e-09 4.40984e-09 0 
0 0 0 0 0 9.77278e-10 0 0 0 
3.72217e-09 0 6.52198e-07 3.0949e-09 0 1.8801e-09 0 1.59177e-09 0 
0 0 0 0 0 0 0 0 0 
0 0 0 0 0 0 0 0 0 
0 0 0 0 0 0 0 0 0 
1.74543e-09 0 0 0 0 0 0 0 0 
0 0 2.67713e-10 0 6.46019e-10 0 0 0 0 
1.32356e-09 0 9.24563e-10 0 0 0 0 0 0 
0 0 0 6.5195e-10 0 0 0 0 0 
0 0 0 9.76004e-07 9.04682e-07 0 0 4.88273e-10 0 
0 0 0 0 0 0 0 0 0 
1.09e-09 0 0 1.51971e-10 0 0 6.39381e-10 0 0 
0 0 1.1359e-09 0 0 0 0 0 0 
0 0 0 0 0 0 0 0 0 
0 0 0 0 0 0 0 0 0 
0 0 0 0 0 0 0 0 2.46116e-09 
9.14928e-10 0 0 0 0 0 0 0 0 
0 0 0 0 0 0 0 0 0 
0 3.73017e-10 0 0 0 0 0 7.08713e-10 3.32169e-10 
6.29802e-10 0 1.27198e-10 0 0 0 0 0 0 
0 0 0 8.22051e-07 0 0 7.42547e-09 0 0 
0 0 0 0 0 0 0 0 0 
0 0 0 0 0 0 0 0 0 
3.00306e-09 0 1.73162e-09 0 0 0 1.27823e-09 0 0 
0 0 1.96031e-09 0 0 0 0 0 0 
0 0 0 0 0 0 0 0 0 
0 0 0 0 0 0 0 0 0 
0 0 0 0 0 0 0 0 0 
8.68007e-10 0 0 0 0 0 2.10918e-09 0 3.89097e-10 
0 0 0 3.12707e-10 0 0 4.23443e-09 6.42766e-07 0 
0 0 0 0 1.78738e-09 0 0 0 0 
6.64899e-07 0 3.85394e-09 0 0 0 0 0 0 
0 0 0 0 0 0 0 0 0 
0 0 5.5518e-10 5.60372e-10 0 0 0 0 5.14732e-09 
6.60978e-07 0 0 1.08766e-09 0 0 7.65e-11 0 0 
2.05281e-09 6.52053e-07 0 0 0 0 0 0 0 
0 0 0 0 0 0 0 0 0 
0 0 0 0 0 0 0 0 0 
0 0 0 6.15649e-09 0 0 0 0 0 
0 0 0 0 0 6.23269e-09 6.72778e-07 0 0 
5.53366e-10 0 0 0 0 0 0 0 0 
2.61134e-09 0 0 2.9135e-11 0 0 2.95648e-10 1.7529e-09 0 
0 5.78997e-09 0 0 0 0 0 3.66344e-09 0 
0 8.30937e-10 0 0 0 0 0 0 0 
0 0 0 0 0 0 0 0 0 
0 0 0 2.7141e-09 0 0 0 0 2.01693e-09 
0 1.11021e-08 0 0 0 0 0 0 0 
0 0 0 0 0 0 0 0 0 
0 0 0 0 0 0 0 0 0 
0 0 0 6.40575e-07 0 0 0 0 0 
0 0 0 0 6.73638e-07 0 0 0 0 
0 0 0 0 0 0 0 3.68565e-09 0 
2.28526e-09 0 0 0 0 0 1.23013e-09 0 6.51868e-07 
4.55311e-09 3.37978e-09 0 0 0 0 0 1.80306e-09 0 
0 0 0 0 0 0 0 0 0 
0 0 0 0 0 0 0 0 2.13951e-09 
0 0 0 0 0 0 0 0 0 
0 0 2.51537e-09 0 0 0 0 0 0 
0 0 0 0 0 0 0 0 0 
0 0 0 0 0 0 0 0 0 
0 0 0 0 1.90695e-09 0 0 0 0 
0 0 0 7.84351e-10 0 0 1.28733e-09 0 0 
0 2.06471e-09 0 0 0 0 3.72049e-09 0 0 
2.36369e-09 0 9.1736e-10 0 0 0 0 0 0 
0 2.31074e-09 1.35391e-09 0 0 0 0 0 1.1102e-09 
0 0 1.71165e-09 6.6321e-07 5.22622e-09 0 0 0 0 
0 0 0 0 0 0 0 0 0 
0 0 0 0 0 1.47954e-09 0 2.16241e-09 0 
6.47788e-07 0 0 0 1.82507e-09 0 0 0 0 
0 0 0 0 0 0 0 0 0 
0 0 0 0 0 0 0 0 0 
0 0 0 7.36933e-10 0 7.54334e-10 0 0 1.02698e-09 
5.06334e-10 7.56375e-10 0 3.16024e-09 0 0 0 0 0 
2.27302e-09 2.47694e-09 7.31028e-07 3.65291e-09 0 3.44039e-09 0 6.57995e-07 2.5493e-09 
0 0 0 4.41132e-10 1.41717e-09 2.32692e-09 1.35912e-09 0 0 
0 2.22927e-09 0 5.10523e-10 0 0 0 0 0 
0 0 0 0 0 0 0 0 0 
0 0 0 0 0 0 0 0 4.36665e-10 
0 0 0 9.72827e-07 1.07375e-06 0 0 0 0 
0 0 0 0 4.54667e-10 0 0 0 0 
0 0 0 0 0 0 0 0 0 
0 0 0 0 0 0 0 0 0 
0 0 0 0 0 0 0 0 0 
0 0 0 0 0 7.01606e-07 2.21712e-09 0 1.93878e-09 
0 0 4.3565e-09 1.30723e-09 0 0 0 0 1.98029e-09 
2.43688e-09 0 0 0 0 6.66643e-07 1.79683e-09 1.38436e-09 1.64566e-09 
0 0 0 0 0 0 0 0 0 
0 0 0 0 0 0 3.90128e-09 0 0 
0 0 0 0 0 0 0 0 0 
0 0 0 0 0 9.7671e-07 0 0 4.12022e-09 
1.64496e-09 0 0 0 0 1.26402e-09 0 0 7.59279e-07 
0 0 1.51033e-09 4.45686e-10 0 0 0 0 0 
0 0 0 0 0 0 0 0 0 
0 0 0 0 0 0 0 0 0 
0 0 0 0 0 0 0 0 0 
0 2.45973e-09 0 0 7.36627e-07 0 2.08218e-09 0 2.98885e-09 
8.59731e-10 0 0 3.99963e-09 0 0 0 0 0 
2.47026e-09 0 0 4.53191e-10 0 7.79061e-10 0 8.16548e-10 0 
0 0 0 0 0 0 0 6.74739e-07 0 
0 2.03376e-09 0 0 0 0 0 0 0 
0 0 0 1.49789e-09 0 0 0 0 0 
0 3.93975e-09 0 0 0 0 0 0 0 
0 7.62915e-07 0 0 0 0 0 0 0 
0 0 0 0 0 0 0 0 0 
0 0 0 0 0 0 0 0 0 
1.23667e-10 0 5.58737e-10 0 0 6.54063e-09 6.90549e-07 3.32076e-09 0 
1.64487e-09 0 0 2.2865e-09 0 0 4.1149e-10 0 1.65395e-09 
0 0 4.00595e-09 6.59177e-07 1.13276e-09 1.14661e-09 0 0 0 
0 0 1.30471e-09 0 1.57819e-09 0 7.70467e-10 0 0 
0 0 2.40652e-09 7.56983e-07 8.31269e-09 0 7.44451e-10 0 0 
0 0 7.55346e-09 0 0 0 0 0 3.83844e-10 
0 4.77064e-10 1.33255e-09 0 0 0 9.73448e-10 4.46997e-09 8.63716e-10 
0 6.62611e-07 3.28891e-09 2.13918e-09 0 1.41816e-09 0 0 0 
0 0 0 3.04634e-09 0 0 0 0 0 
0 0 0 0 0 0 0 0 0 
0 0 0 0 0 0 0 0 0 
0 0 0 0 0 0 2.95414e-09 0 0 
0 0 0 7.41468e-10 0 0 5.15255e-10 0 3.08734e-09 
0 0 0 0 0 1.00053e-08 0 1.37101e-09 0 
6.66783e-07 0 2.11126e-09 0 0 2.80482e-09 0 0 0 
0 0 0 0 0 7.58981e-07 0 1.60723e-09 0 
0 0 0 4.37184e-09 0 0 0 0 0 
0 0 0 0 0 1.15944e-10 1.95472e-09 3.10127e-10 0 
0 2.88656e-09 0 0 0 0 0 0 0 
1.38554e-10 0 0 0 2.77098e-09 0 0 0 0 
0 0 0 0 0 0 0 0 0 
0 0 0 0 0 0 0 0 0 
0 0 0 0 0 0 0 0 0 
0 1.37495e-09 0 2.64002e-10 4.96587e-10 0 0 0 6.68703e-07 
0 0 1.68977e-09 0 0 0 0 4.0532e-09 0 
0 0 5.93808e-10 2.74438e-09 0 0 6.5682e-07 0 0 
0 0 0 1.68622e-09 0 0 0 0 0 
0 0 0 0 9.26113e-07 9.53998e-07 1.78135e-09 0 0 
0 0 0 6.47638e-10 6.50945e-07 0 0 0 0 
0 0 2.9519e-09 0 0 0 0 0 0 
0 0 5.45282e-09 0 0 0 0 0 0 
0 0 0 0 0 0 0 0 0 
0 0 0 0 0 0 0 0 0 
0 0 0 0 0 0 0 0 0 
0 0 0 5.2728e-10 0 0 0 0 0 
0 0 0 0 0 0 0 0 0 
0 0 0 0 0 8.93716e-10 0 0 0 
1.74762e-09 1.37921e-09 0 0 0 0 1.95429e-09 0 1.12752e-09 
0 0 0 0 0 0 0 0 0 
0 0 0 0 0 4.24121e-09 2.99615e-09 0 0 
1.57547e-09 0 0 0 0 1.7189e-10 0 4.68804e-10 0 
3.86801e-09 0 0 5.05179e-09 8.14726e-07 0 0 0 0 
0 0 0 0 0 0 0 0 0 
0 0 0 0 0 0 0 0 0 
0 0 0 0 2.42895e-10 0 0 0 0 
0 0 0 0 0 0 0 9.28144e-10 0 
0 0 0 1.04134e-09 0 0 0 0 0 
0 0 0 0 0 3.46213e-09 3.16401e-09 0 2.69397e-09 
0 1.53984e-09 1.34197e-09 0 0 0 0 0 0 
0 0 0 0 0 0 0 9.92271e-07 9.87938e-09 
0 0 0 0 2.4408e-09 0 0 0 2.44603e-09 
8.14604e-10 0 0 2.17755e-09 0 0 0 0 0 
0 0 3.97867e-09 0 9.7302e-07 0 0 0 1.14081e-09 
0 0 0 0 0 0 0 0 0 
0 0 0 0 0 0 0 0 0 
0 0 0 0 0 0 0 0 1.71409e-09 
4.99549e-09 0 0 0 5.38686e-10 0 0 0 6.46932e-07 
4.56803e-09 5.30474e-10 0 1.95531e-09 0 0 1.90038e-09 0 0 
0 0 0 0 0 1.06388e-09 0 6.66431e-07 0 
0 0 0 3.69733e-10 0 0 0 0 0 
9.17412e-10 0 0 0 2.37112e-09 0 0 0 9.31451e-07 
0 0 0 0 7.39983e-07 0 0 0 0 
0 0 0 0 0 0 0 1.90943e-09 2.93936e-09 
0 6.71962e-07 1.48769e-09 3.91244e-10 0 9.1021e-07 0 0 6.94848e-10 
1.13288e-09 0 0 0 0 0 0 0 0 
0 0 0 0 0 0 0 0 0 
0 0 0 0 0 0 0 0 0 
0 0 0 7.07793e-10 0 0 0 0 0 
2.94772e-09 1.97049e-09 0 9.9378e-10 0 0 1.44629e-09 0 0 
0 0 0 0 0 0 0 0 1.14288e-09 
0 1.24952e-09 2.67171e-09 0 0 2.45887e-09 0 0 0 
1.12262e-09 0 0 2.03606e-09 0 8.29598e-10 1.51324e-09 0 0 
6.21645e-09 0 0 9.39393e-07 0 1.32744e-09 0 3.7471e-09 0 
9.61541e-10 4.50952e-09 0 2.23121e-09 3.0613e-09 0 6.60429e-07 0 0 
2.18865e-09 0 3.97551e-09 1.6756e-09 3.45484e-09 0 0 0 0 
0 0 0 0 0 0 0 0 0 
0 0 0 0 0 0 0 0 0 
0 0 0 0 0 0 0 0 0 
0 6.09692e-09 6.71914e-07 5.52127e-09 0 4.52751e-10 0 0 0 
2.76306e-10 6.63279e-10 1.69087e-09 8.36492e-10 0 0 0 0 6.47544e-07 
0 0 0 0 0 0 0 0 0 
0 0 6.78178e-09 0 0 4.06554e-09 0 1.29761e-09 0 
0 1.56892e-09 0 0 0 9.95819e-10 0 0 0 
0 0 1.43515e-09 0 9.04104e-07 0 0 4.17337e-09 0 
6.90777e-07 0 1.41565e-09 6.80743e-07 4.26973e-09 0 0 4.91475e-09 2.69289e-09 
0 2.32087e-09 0 0 0 0 0 0 2.02165e-09 
1.74966e-09 8.25683e-10 0 0 0 0 0 0 0 
0 0 0 0 0 0 0 0 0 
0 0 0 0 0 0 0 0 0 
0 0 0 0 0 6.49778e-10 1.32852e-10 0 0 
0 0 0 0 0 0 0 0 0 
1.18204e-09 0 0 0 4.99374e-10 0 0 0 0 
1.35087e-09 0 0 0 0 0 7.58236e-07 0 0 
0 1.45299e-09 0 0 0 0 0 0 0 
0 0 0 0 0 0 0 1.16162e-09 0 
0 7.12763e-10 0 9.64896e-10 4.40182e-09 0 5.863e-09 0 0 
0 0 0 0 0 5.25001e-09 4.16051e-09 0 9.08696e-10 
0 0 0 0 0 0 0 0 0 
0 0 0 0 0 0 0 0 0 
0 0 0 0 0 0 0 0 0 
0 0 0 0 0 3.7052e-09 0 0 0 
3.81047e-10 0 3.14758e-09 0 0 0 4.80173e-11 0 1.12039e-09 
0 0 0 0 0 0 0 0 0 
4.5562e-10 0 0 1.45677e-09 0 0 0 0 2.8193e-09 
3.08263e-09 0 0 0 6.74261e-07 0 0 0 0 
0 0 1.46284e-09 0 0 0 0 0 0 
0 0 6.01027e-10 0 0 0 0 2.35933e-09 0 
1.00086e-09 0 4.2001e-09 0 0 7.71764e-07 0 0 0 
0 0 0 0 0 0 0 0 0 
0 0 0 0 0 0 0 0 0 
0 0 0 0 0 0 0 1.96695e-10 0 
9.57796e-10 0 0 8.6818e-07 8.84595e-07 0 0 0 0 
0 0 0 6.41311e-09 0 0 0 0 2.84131e-10 
8.23504e-10 0 0 1.90727e-09 0 0 0 0 0 
0 0 0 0 0 0 0 8.66532e-07 1.20325e-09 
0 0 0 0 4.90861e-09 0 0 0 6.69362e-07 
0 0 0 0 6.55776e-07 0 0 0 0 
3.83836e-10 0 0 2.53937e-09 0 0 0 0 0 
0 0 6.786e-07 0 0 0 0 7.60073e-07 0 
0 0 3.95889e-10 0 0 0 0 0 0 
0 0 0 0 0 0 0 0 0 
0 0 0 0 0 0 0 0 0 
0 1.58774e-09 0 0 0 0 5.6254e-09 0 0 
1.73909e-09 0 0 0 0 6.40934e-07 7.46286e-09 3.22263e-09 0 
0 8.89696e-10 0 1.89154e-09 6.46917e-07 0 1.72839e-09 0 0 
3.37895e-10 0 0 0 0 0 0 0 0 
0 0 0 0 4.67401e-09 6.68439e-10 0 0 7.46726e-10 
0 5.65528e-09 0 0 0 0 0 1.06275e-09 0 
1.75698e-09 0 6.54262e-07 0 0 0 2.47968e-09 0 0 
6.78338e-07 0 0 2.70001e-09 0 1.40557e-09 0 0 0 
0 0 0 0 0 0 0 0 0 
0 0 0 0 0 0 0 0 0 
0 0 0 0 0 0 0 0 0 
0 0 6.84582e-10 0 1.85315e-09 0 0 0 0 
0 0 1.46953e-09 0 0 0 1.66892e-09 0 0 
0 0 0 0 0 3.17295e-09 0 0 0 
0 5.03567e-10 0 0 0 0 0 9.80953e-07 1.14322e-06 
1.03668e-06 0 0 1.78166e-09 7.6553e-07 0 0 3.20359e-09 0 
0 0 0 0 0 0 0 0 0 
0 0 2.10406e-09 2.42647e-09 0 1.02303e-09 3.41739e-09 0 0 
1.22418e-09 0 0 0 0 0 0 1.62545e-09 0 
3.06899e-09 0 0 0 0 0 0 0 0 
0 0 0 0 0 0 0 0 0 
0 0 0 0 0 0 0 0 0 
0 0 0 0 0 3.16748e-09 0 0 7.26912e-09 
8.67128e-07 0 0 0 0 0 0 0 0 
0 0 0 0 0 0 0 0 1.02978e-09 
0 0 0 0 0 0 0 0 0 
2.1871e-09 0 0 0 0 0 5.95748e-09 7.27022e-07 0 
0 3.89304e-09 0 0 0 5.17189e-10 0 0 0 
0 9.47076e-10 0 0 0 0 0 0 6.57676e-07 
0 0 0 0 4.09606e-10 0 0 5.17155e-10 0 
0 0 0 0 0 0 0 0 0 
0 0 0 0 0 0 0 0 0 
0 0 0 0 0 0 0 0 0 
0 0 0 0 0 0 0 0 0 
0 8.57199e-07 0 7.17248e-10 0 0 0 0 0 
0 0 0 0 0 0 9.81005e-10 0 1.06486e-09 
0 0 0 0 0 0 9.82431e-10 0 0 
0 1.72035e-09 0 2.33362e-09 0 7.32766e-07 0 0 4.09362e-09 
0 0 0 0 4.41787e-10 0 0 0 0 
4.95185e-10 0 0 0 0 0 0 0 0 
0 0 2.03794e-09 0 0 0 0 0 0 
0 0 0 4.69984e-10 0 0 0 0 0 
0 0 0 0 0 0 0 0 0 
0 0 0 0 0 0 0 0 0 
0 0 0 0 0 0 0 0 0 
0 0 1.81508e-08 0 2.53912e-09 0 0 0 0 
0 0 0 0 0 0 0 0 0 
0 0 0 0 0 1.23508e-09 0 2.5254e-09 0 
4.35324e-09 7.03547e-07 2.94188e-09 0 0 0 6.80697e-09 3.93844e-09 5.8929e-09 
0 0 0 0 8.58059e-07 0 0 0 0 
0 0 0 0 0 0 0 0 0 
0 0 1.57107e-09 7.01377e-10 0 2.24659e-09 2.27774e-09 0 0 
1.20776e-09 0 0 0 0 0 0 0 0 
0 0 0 0 0 0 0 0 0 
0 0 0 0 0 0 0 0 0 
0 0 0 0 0 0 0 0 0 
0 0 1.94086e-09 4.30096e-10 0 0 0 0 0 
0 3.09588e-10 0 0 0 0 0 0 0 
2.43562e-10 0 0 0 0 3.1525e-09 0 5.79979e-09 1.26419e-09 
0 0 1.9476e-09 0 9.53698e-10 1.69632e-09 0 1.92599e-09 0 
1.2512e-09 0 0 0 2.64643e-09 8.54075e-07 0 3.89201e-09 1.89731e-09 
0 0 0 0 0 0 0 0 0 
0 0 0 0 5.7802e-10 5.86606e-10 0 0 2.34114e-09 
0 0 0 0 0 0 0 0 0 
0 0 0 0 0 0 0 0 0 
0 0 0 0 0 0 0 0 0 
0 0 0 0 0 0 0 4.04372e-09 0 
0 0 7.05744e-10 1.02865e-09 0 0 0 0 0 
0 3.64269e-10 0 0 0 0 0 0 0 
0 0 0 0 0 0 1.10639e-09 3.28538e-09 0 
0 0 0 1.76981e-09 0 0 0 0 0 
6.59509e-10 0 0 0 0 0 0 0 0 
0 0 0 0 0 9.10462e-10 0 0 0 
0 0 0 0 0 0 1.43251e-09 0 6.48116e-07 
0 1.70935e-09 0 0 0 0 0 0 0 
0 0 0 0 0 0 0 0 0 
0 0 0 0 0 0 0 0 0 
0 0 0 0 0 0 0 8.469e-10 6.40125e-07 
0 0 1.16065e-09 0 0 0 2.48657e-10 0 1.20656e-09 
8.23183e-10 0 0 0 0 0 0 0 0 
0 0 0 0 4.15775e-10 0 0 0 6.56396e-10 
0 0 0 0 0 0 0 0 0 
0 0 0 0 0 1.49035e-09 0 5.06164e-09 0 
1.74872e-09 0 1.18791e-10 0 4.31343e-09 0 0 0 0 
0 0 0 0 0 0 0 0 3.11551e-09 
2.17776e-09 0 0 0 0 0 0 0 0 
0 0 0 0 0 0 0 0 0 
0 0 0 0 0 0 0 0 0 
0 0 0 0 0 0 0 0 2.19762e-09 
1.7078e-09 0 7.8624e-10 8.52341e-10 0 0 9.90675e-10 0 0 
0 0 0 0 0 0 0 0 0 
0 0 0 0 8.01864e-10 0 0 0 1.31483e-09 
0 0 0 0 0 0 0 0 0 
0 0 0 0 0 0 0 0 0 
0 0 2.75404e-09 0 1.41904e-09 6.77113e-07 0 0 0 
0 0 0 0 0 0 0 0 0 
0 0 0 0 0 0 0 1.26373e-09 0 
0 0 0 0 0 0 0 0 0 
0 0 0 0 0 0 0 0 0 
0 0 0 0 0 0 0 0 0 
0 2.12589e-09 1.89889e-09 0 0 0 0 2.88247e-09 6.5428e-07 
4.67025e-09 0 0 1.99894e-09 0 0 0 0 0 
1.81978e-10 0 0 0 0 7.06354e-10 0 0 0 
0 0 0 0 0 0 0 0 0 
0 0 0 0 0 0 0 0 0 
0 0 2.45103e-09 0 0 0 0 0 3.42638e-09 
0 0 5.69528e-10 0 0 0 0 0 0 
1.10293e-09 0 0 0 0 0 0 0 0 
0 0 0 6.71578e-10 1.5265e-10 0 0 0 0 
0 0 0 0 0 0 0 0 0 
0 0 0 0 0 0 0 0 0 
0 0 0 0 0 0 0 0 0 
0 0 4.20797e-09 2.12008e-10 6.67896e-07 0 0 1.61305e-09 0 
0 0 0 0 0 0 0 0 0 
0 0 0 0 1.13789e-09 0 0 2.53322e-09 0 
0 0 0 0 0 4.34135e-10 0 0 0 
0 8.87244e-10 0 0 5.55883e-09 0 6.28726e-09 0 0 
4.66711e-09 5.89711e-10 0 0 0 0 0 0 0 
2.50733e-10 3.86072e-10 2.11333e-09 0 6.48113e-07 4.31908e-09 0 0 3.11961e-09 
0 1.9535e-09 0 0 0 0 0 0 0 
0 0 0 0 0 0 0 0 0 
0 0 0 0 0 0 0 0 0 
0 0 0 0 0 0 0 0 0 
0 0 0 0 0 0 0 0 0 
0 0 0 9.53911e-10 3.24554e-09 0 0 2.40076e-09 0 
2.339e-09 0 0 0 0 0 3.023e-09 6.4152e-07 0 
4.6669e-09 0 0 0 0 0 0 0 0 
6.42837e-07 4.82016e-09 0 1.68529e-09 0 0 0 0 0 
9.22e-09 6.58096e-07 0 2.53071e-09 0 0 0 0 0 
0 0 1.0188e-09 0 0 1.50498e-09 0 0 0 
0 0 8.49818e-07 0 0 0 0 0 0 
0 0 0 0 0 0 0 0 0 
0 0 0 0 0 0 0 0 0 
0 0 0 0 0 0 0 0 0 
0 0 0 0 0 0 4.82969e-09 0 0 
1.59823e-09 3.23797e-10 0 0 5.99835e-10 0 6.65445e-07 0 3.94687e-09 
0 0 0 0 0 0 2.18019e-09 6.90156e-10 0 
0 0 0 0 1.82201e-10 0 0 0 0 
0 0 1.93741e-09 0 0 0 0 0 0 
0 0 1.89425e-09 2.71056e-09 0 0 0 0 0 
0 0 0 0 0 0 0 0 1.28579e-09 
9.5579e-10 2.69918e-09 0 8.49577e-07 5.38835e-09 0 0 0 0 
0 0 0 0 0 0 0 0 0 
0 0 0 0 0 0 0 0 0 
0 0 0 0 0 0 0 0 1.22988e-09 
0 2.16177e-09 0 0 0 0 6.88949e-07 2.70379e-09 0 
1.08952e-09 1.3276e-09 0 0 0 0 0 0 0 
0 0 0 8.06036e-07 1.03498e-09 0 0 0 0 
0 6.33552e-10 0 0 0 0 0 4.33026e-10 0 
2.42728e-09 0 0 0 0 0 0 0 0 
1.19897e-09 0 0 0 0 0 0 0 0 
0 0 0 0 0 0 0 0 0 
0 0 0 0 0 0 1.37093e-09 6.6852e-10 0 
0 0 0 0 0 0 0 0 0 
0 0 0 0 0 0 0 0 0 
0 0 0 0 0 0 3.59504e-09 1.34888e-09 0 
0 0 0 2.97078e-09 0 0 0 0 3.30442e-09 
0 0 0 0 0 0 0 0 0 
0 0 7.28711e-07 0 2.76379e-09 7.80208e-07 9.47677e-09 0 0 
1.7796e-09 1.0833e-09 0 0 0 0 0 0 0 
0 0 0 0 0 0 0 0 0 
0 0 0 0 0 0 0 0 0 
0 0 0 0 0 0 0 0 0 
0 0 0 0 0 0 2.15192e-09 2.50253e-09 0 
0 0 0 0 0 0 0 0 0 
0 0 0 0 0 0 0 0 0 
0 0 0 0 0 0 0 6.43316e-07 0 
0 0 0 0 8.73271e-07 3.95759e-09 0 0 0 
0 0 0 0 0 0 0 6.55414e-07 1.85294e-09 
0 0 3.51444e-09 7.84347e-09 0 0 0 0 3.85188e-09 
0 0 0 0 0 0 0 6.95336e-10 0 
0 0 0 0 8.44613e-10 0 0 0 0 
0 0 0 0 0 0 0 0 0 
0 0 0 0 0 0 0 0 0 
0 0 0 0 0 0 3.04336e-10 7.12836e-10 0 
0 0 0 0 0 0 0 0 0 
0 0 0 0 0 0 0 0 0 
0 0 0 0 0 0 0 0 4.28337e-09 