# vtk DataFile Version 5.1
vtk output
ASCII
DATASET STRUCTURED_POINTS
DIMENSIONS 100 100 1
SPACING 1 1 1
ORIGIN 0 0 0
POINT_DATA 10000
FIELD FieldData 6
feature_1 1 10000 float
0 0 0 0 0 0 0 0 0 
0 0 0 0 0 0 0 0 0 
0 0 0 0 0 0 0 0 0 
0 0 0 0 0 0 0 0 0 
0 0 0 0 0 0 0 0 0 
0 0 0 0 0 0 0 0 0 
0 0 0 0 0 0 0 0 0 
0 0 0 0 0 0 0 0 0 
0 0 0 0 0 0 0 0 0 
0 0 0 0 0 0 0 0 0 
0 0 0 0 0 0 0 0 0 
0 0 0 0 0 0 0 0 0 
0 0 0 0 0 0 0 0 0 
0 0 0 0 0 0 0 0 0 
0 0 0 0 0 0 0 0 0 
0 0 0 0 0 0 0 0 0 
0 0 0 0 0 0 0 0 0 
0 0 0 0 0 0 0 0 0 
0 0 0 0 0 0 0 0 0 
0 0 0 0 0 0 0 0 0 
0 0 0 0 0 0 0 0 0 
0 0 0 0 0 0 0 0 0 
0 0 0 0 0 0 0 0 0 
0 0 0 0 0 0 0 0 0 
0 0 0 0 0 0 0 0 0 
0 0 0 0 0 0 0 0 0 
0 0 0 0 0 0 0 0 0 
0 0 0 0 0 0 0 0 0 
0 0 0 0 0 0 0 0 0 
0 0 0 0 0 0 0 0 0 
0 0 0 0 0 0 0 0 0 
0 0 0 0 0 0 0 0 0 
0 0 0 0 0 0 0 0 0 
0 0 0 0 0 0 0 0 0 
0 0 0 0 0 0 0 0 0 
0 0 0 0 0 0 0 0 0 
0 0 0 0 0 0 0 0 0 
0 0 0 0 0 0 0 0 0 
0 0 0 0 0 0 0 0 0 
0 0 0 0 0 0 0 0 0 
0 0 0 0 0 0 0 0 0 
0 0 0 0 0 0 0 0 0 
0 0 0 0 0 0 0 0 0 
0 0 0 0 0 0 0 0 0 
0 0 0 0 0 0 0 0 0 
0 0 0 0 0 0 0 0 0 
0 0 0 0 0 0 0 0 0 
0 0 0 0 0 0 0 0 0 
0 0 0 0 0 0 0 0 0 
0 0 0 0 0 0 0 0 0 
0 0 0 0 0 0 0 0 0 
0 0 0 0 0 0 0 0 0 
0 0 0 0 0 0 0 0 0 
0 0 0 0 0 0 0 0 0 
0 0 0 0 0 0 0 0 0 
0 0 0 0 0 0 0 0 0 
0 0 0 0 0 0 0 0 0 
0 0 0 0 0 0 0 0 0 
0 0 0 0 0 0 0 0 0 
0 0 0 0 0 0 0 0 0 
0 0 0 0 0 0 0 0 0 
0 0 0 0 0 0 0 0 0 
0 0 0 0 0 0 0 0 0 
0 0 0 0 0 0 0 0 0 
0 0 0 0 0 0 0 0 0 
0 0 0 0 0 0 0 0 0 
0 0 0 0 0 0 0 0 0 
0 0 0 0 0 0 0 0 0 
0 0 0 0 0 0 0 0 0 
0 0 0 0 0 0 0 0 0 
0 0 0 0 0 0 0 0 0 
0 0 0 0 0 0 0 0 0 
0 0 0 0 0 0 0 0 0 
0 0 0 0 0 0 0 0 0 
0 0 0 0 0 0 0 0 0 
0 0 0 0 0 0 0 0 0 
0 0 0 0 0 0 0 0 0 
0 0 0 0 0 0 0 0 0 
0 0 0 0 0 0 0 0 0 
0 0 0 0 0 0 0 0 0 
0 0 0 0 0 0 0 0 0 
0 0 0 0 0 0 0 0 0 
0 0 0 0 0 0 0 0 0 
0 0 0 0 0 0 0 0 0 
0 0 0 0 0 0 0 0 0 
0 0 0 0 0 0 0 0 0 
0 0 0 0 0 0 0 0 0 
0 0 0 0 0 0 0 0 0 
0 0 0 0 0 0 0 0 0 
0 0 0 0 0 0 0 0 0 
0 0 0 0 0 0 0 0 0 
0 0 0 0 0 0 0 0 0 
0 0 0 0 0 0 0 0 0 
0 0 0 0 0 0 0 0 0 
0 0 0 0 0 0 0 0 0 
0 0 0 0 0 0 0 0 0 
0 0 0 0 0 0 0 0 0 
0 0 0 0 0 0 0 0 0 
0 0 0 0 0 0 0 0 0 
0 0 0 0 0 0 0 0 0 
0 0 0 0 0 0 0 0 0 
0 0 0 0 0 0 0 0 0 
0 0 0 0 0 0 0 0 0 
0 3.66141e-11 0 0 0 0 0 0 0 
0 0 0 0 0 0 0 6.43574e-10 0 
0 0 0 0 0 0 0 0 0 
0 0 0 0 0 0 0 0 0 
0 0 0 0 0 0 0 0 0 
0 0 0 0 0 0 0 0 0 
0 0 0 0 0 0 0 0 0 
0 0 0 0 0 0 0 0 0 
0 0 0 0 0 0 0 0 0 
0 0 0 0 0 0 0 0 0 
0 0 0 0 0 0 0 0 0 
0 0 0 0 0 0 0 0 0 
0 0 7.74802e-13 0 0 0 0 0 0 
0 1.75696e-09 0 0 0 4.25687e-12 0 0 0 
0 0 0 0 0 0 0 2.32484e-09 0 
0 0 0 0 0 0 0 0 0 
0 0 0 0 0 5.2414e-10 0 0 0 
0 0 0 0 0 0 0 0 0 
0 0 0 0 0 0 0 0 0 
0 0 0 0 0 0 0 0 0 
0 0 0 0 0 0 0 0 0 
0 0 0 0 0 0 0 0 0 
0 0 0 0 0 0 0 0 0 
0 0 0 0 0 0 0 0 1.69289e-09 
0 0 0 0 0 0 0 0 0 
0 0 0 0 0 0 0 0 0 
0 0 0 0 0 0 0 0 0 
0 0 0 0 4.13439e-10 0 0 0 0 
0 0 0 0 0 0 0 0 0 
0 0 0 0 0 0 0 0 0 
0 0 0 0 0 0 0 0 0 
0 0 0 0 0 0 0 0 0 
0 0 0 0 0 0 0 0 0 
0 0 0 0 0 0 0 0 0 
0 0 0 0 0 0 0 0 0 
0 0 0 7.84762e-07 6.71665e-09 2.18327e-09 0 0 0 
0 0 0 0 0 0 0 1.33183e-09 6.40485e-07 
1.37344e-09 0 0 0 0 0 0 0 0 
0 0 0 0 0 0 0 5.15448e-10 0 
0 0 0 0 0 0 0 0 0 
0 0 0 0 0 0 0 0 0 
0 0 0 0 0 0 0 0 0 
0 0 0 0 0 0 0 0 0 
0 0 0 0 0 0 0 0 0 
0 0 0 0 0 0 5.52488e-10 0 0 
0 0 0 1.33173e-09 1.22131e-10 0 0 0 0 
3.18465e-09 0 0 8.2478e-07 0 6.48269e-09 0 0 0 
8.36848e-10 0 0 0 0 6.28461e-10 0 0 0 
0 0 1.8814e-09 1.15182e-09 0 0 0 0 0 
0 0 0 0 0 0 0 0 0 
0 1.54531e-09 0 0 0 0 0 0 0 
0 0 0 0 0 0 0 0 0 
0 0 0 0 0 0 0 0 0 
0 0 0 0 0 0 0 0 0 
0 0 0 0 0 0 0 0 0 
0 0 0 0 4.43102e-09 6.42423e-07 0 1.5475e-09 0 
0 0 0 1.44682e-09 0 8.12635e-09 0 0 1.16107e-09 
0 0 0 0 0 0 0 0 0 
0 0 0 0 0 0 0 0 6.21875e-10 
0 0 0 0 0 0 0 0 0 
0 0 0 0 0 0 1.51297e-09 0 0 
6.41947e-07 1.45301e-09 0 0 0 0 0 0 0 
0 0 0 0 0 0 0 0 0 
0 0 0 0 0 0 0 0 0 
0 0 0 0 0 0 0 0 0 
0 0 0 0 0 0 0 0 0 
0 0 0 0 0 0 0 0 0 
8.57675e-10 0 0 0 0 3.91126e-09 6.42128e-07 4.82353e-09 2.74138e-09 
0 0 0 0 0 0 7.89063e-07 0 0 
6.66024e-10 0 0 0 0 0 0 0 0 
0 0 1.27087e-09 0 0 0 0 0 0 
0 0 0 0 9.58962e-10 0 0 0 0 
0 4.02012e-10 0 0 0 0 0 0 0 
0 0 0 0 0 0 0 0 0 
0 0 0 0 0 0 0 0 0 
0 0 0 0 0 0 0 0 0 
0 0 0 0 0 0 0 0 0 
0 0 0 0 0 0 1.80344e-09 0 0 
0 0 0 0 0 0 2.34011e-09 0 0 
0 0 0 0 0 7.34136e-07 1.24601e-08 0 0 
0 0 6.83656e-07 0 0 1.12576e-09 0 0 0 
0 0 0 0 1.48597e-09 0 1.76851e-09 0 2.02531e-09 
0 0 0 8.12451e-10 0 0 0 0 0 
0 0 0 0 0 0 0 0 0 
9.12586e-11 0 0 0 0 0 0 0 0 
0 0 0 0 0 0 0 0 0 
0 0 0 0 0 0 0 0 0 
0 0 0 0 0 0 0 0 0 
0 0 0 0 0 6.49745e-10 0 5.2604e-09 0 
1.58719e-09 0 0 4.21398e-10 0 0 0 0 2.40824e-09 
0 0 0 0 0 0 0 0 0 
0 0 0 0 0 0 1.18327e-09 3.39109e-10 3.39989e-10 
0 0 0 0 0 0 0 7.13304e-07 0 
7.13068e-07 8.48962e-09 0 0 0 0 0 0 6.619e-07 
0 0 0 0 0 0 0 0 0 
0 0 0 0 0 0 0 0 0 
0 0 0 0 0 0 0 0 0 
0 0 0 0 0 0 0 0 0 
0 0 0 0 0 0 0 0 0 
0 0 0 0 0 3.78731e-09 0 1.34501e-09 0 
0 0 0 0 0 0 0 0 0 
0 1.38181e-09 0 4.66211e-09 5.55127e-09 0 0 0 0 
0 0 0 0 0 0 1.71118e-09 0 0 
0 0 0 0 0 1.36201e-09 0 0 0 
0 0 2.50837e-09 0 0 3.15077e-10 0 0 0 
0 5.52054e-12 1.99104e-09 2.41792e-09 1.6432e-09 0 0 0 0 
0 0 0 0 0 0 0 0 0 
0 0 0 0 0 0 0 0 0 
0 0 0 0 0 0 0 0 0 
0 0 0 0 0 0 0 0 0 
0 0 0 0 0 0 0 2.1735e-09 0 
4.00356e-09 6.45026e-07 7.73e-10 0 0 0 0 0 0 
0 0 0 0 6.46018e-07 0 0 0 0 
0 8.89331e-07 9.05641e-07 0 2.28651e-09 7.12982e-07 0 0 0 
0 0 0 0 0 0 0 1.74161e-09 0 
0 1.70727e-09 8.97388e-10 0 0 1.26027e-09 0 0 0 
2.04382e-09 0 0 1.18468e-09 0 0 0 0 0 
0 0 0 0 0 0 0 8.0592e-10 0 
0 0 0 0 0 0 0 0 0 
0 0 0 0 0 0 0 0 0 
0 0 0 0 0 0 0 0 0 
0 0 0 7.34339e-10 2.23557e-09 4.52536e-09 6.424e-07 5.51433e-09 0 
0 2.78615e-09 3.53707e-09 0 0 0 0 0 0 
0 0 0 0 0 0 0 0 1.70354e-09 
0 0 0 0 0 0 2.0081e-09 0 1.18865e-09 
0 0 0 0 0 0 0 0 0 
0 0 3.36905e-10 0 0 0 0 0 0 
0 0 9.7004e-10 0 0 0 0 0 0 
4.31171e-10 0 0 0 0 0 1.44134e-09 1.45709e-09 0 
0 0 0 0 0 0 0 0 0 
0 0 0 0 0 0 0 0 0 
0 0 0 0 0 0 0 0 0 
0 0 0 0 0 0 0 0 5.24875e-09 
2.16256e-09 0 1.15102e-09 0 0 6.36587e-10 0 0 0 
0 5.87204e-10 0 0 0 0 0 0 6.43125e-10 
1.8777e-09 0 0 0 0 0 0 3.57242e-09 0 
1.25205e-09 0 0 0 0 2.43082e-10 0 0 0 
0 0 0 0 0 1.39817e-09 0 0 0 
0 0 0 0 0 0 0 0 1.55618e-09 
0 4.9234e-10 0 0 0 0 0 1.29967e-09 0 
0 0 0 0 0 0 0 0 0 
0 0 0 0 0 0 0 0 0 
0 0 0 0 0 0 0 0 0 
0 0 0 0 1.44221e-09 0 0 0 0 
0 0 0 0 1.0574e-09 0 0 0 0 
0 0 0 0 0 0 9.18042e-10 9.30311e-10 0 
5.73693e-10 0 0 0 0 1.99717e-09 0 0 0 
0 3.67452e-10 1.48776e-09 0 0 0 0 0 0 
0 0 0 0 0 0 0 4.75773e-09 0 
1.59054e-10 0 0 0 0 1.64979e-09 0 0 7.72668e-10 
0 0 0 0 0 0 0 0 0 
7.13112e-07 0 0 1.63957e-09 0 0 0 0 0 
0 0 0 0 0 0 0 0 0 
0 0 0 0 0 0 0 0 0 
0 0 0 0 0 1.53041e-10 0 0 0 
1.00543e-09 7.01134e-10 0 3.98763e-10 0 0 0 9.59857e-10 0 
0 0 0 4.08572e-10 0 0 7.68928e-10 0 0 
5.8309e-10 0 0 0 1.61253e-09 0 0 8.68611e-07 8.65855e-07 
0 0 0 0 0 0 0 0 0 
3.45632e-10 0 0 0 0 0 0 0 6.42552e-07 
0 0 0 4.27879e-10 0 0 0 0 0 
0 6.50373e-07 7.82589e-09 0 0 0 0 0 0 
5.65767e-09 1.79141e-09 0 0 0 0 0 0 0 
0 0 0 0 0 0 0 0 0 
0 0 0 0 0 0 0 0 0 
6.60832e-10 0 0 0 0 0 0 1.43851e-09 0 
0 6.25246e-10 0 0 0 0 0 0 0 
1.67147e-09 0 0 0 0 7.62728e-10 0 0 0 
0 0 0 0 0 0 0 1.39855e-10 3.39252e-09 
0 0 2.27992e-09 0 2.95839e-10 1.11758e-09 6.41172e-07 1.97872e-09 0 
1.20117e-09 0 0 0 0 0 0 2.75963e-09 0 
0 0 0 0 0 0 4.74497e-09 0 0 
0 0 1.58521e-09 0 3.56355e-09 0 0 0 0 
1.16736e-09 0 7.19693e-07 1.82067e-09 0 2.79584e-10 0 0 0 
0 0 0 0 0 0 0 0 0 
0 0 0 0 0 0 0 0 0 
0 1.0782e-09 0 1.2849e-09 1.42375e-09 0 0 1.17574e-09 0 
0 0 0 2.01253e-10 0 0 0 0 0 
0 0 2.85143e-09 0 1.19993e-09 0 1.17374e-09 0 0 
0 0 0 0 0 0 0 2.1696e-09 0 
4.41545e-09 4.75897e-11 0 0 2.37482e-09 0 7.10964e-10 2.61979e-09 0 
0 0 9.80224e-10 0 0 0 0 5.93993e-10 0 
5.38862e-10 0 1.94258e-09 0 0 0 9.62262e-09 6.49343e-07 5.19643e-09 
0 0 0 0 0 0 0 6.68506e-10 0 
0 0 4.10495e-09 0 0 0 0 0 0 
0 0 0 0 0 0 0 0 0 
0 0 0 0 0 0 0 0 0 
0 0 0 0 0 0 0 0 0 
7.12055e-07 0 0 0 0 0 0 0 0 
0 0 4.3018e-09 6.42801e-07 0 0 1.87847e-09 0 6.93431e-07 
0 2.67598e-09 1.49716e-09 0 0 0 0 1.15458e-09 0 
0 0 0 0 0 0 0 0 0 
0 0 0 0 0 0 0 0 0 
0 0 1.37057e-09 0 0 0 0 0 3.43225e-09 
0 0 2.95542e-09 0 0 0 0 0 0 
0 0 0 3.11653e-09 0 0 1.2596e-09 0 0 
0 0 0 0 0 0 0 0 0 
0 0 0 0 0 0 0 0 0 
0 0 0 6.54674e-07 0 0 0 0 7.67683e-07 
0 0 0 0 0 0 0 0 0 
0 0 1.15845e-09 1.35982e-09 0 0 0 0 0 
0 0 6.99934e-07 0 0 3.766e-09 0 0 0 
0 1.34997e-09 3.25163e-09 0 0 6.93285e-10 0 0 0 
1.06433e-09 0 0 0 0 0 0 0 3.3738e-10 
0 1.11359e-09 0 0 0 0 0 0 0 
0 0 0 0 0 6.51222e-07 0 0 0 
0 4.04099e-10 0 0 1.01261e-09 0 0 0 0 
0 0 0 0 0 0 0 0 0 
0 0 0 0 0 0 0 0 0 
0 0 1.80763e-09 3.6577e-09 0 0 0 0 0 
0 0 3.91733e-09 2.29157e-09 0 0 8.09256e-10 0 0 
0 0 0 0 0 0 0 0 0 
2.01823e-09 0 0 0 0 0 2.74336e-09 6.00829e-09 0 
0 6.03864e-09 6.98298e-07 0 0 0 0 0 0 
4.49407e-10 0 0 0 0 2.80957e-09 4.23534e-09 0 0 
0 0 0 0 0 0 1.79311e-09 0 0 
0 0 2.32686e-09 0 0 0 0 0 0 
0 0 0 0 0 6.67602e-07 0 0 0 
3.14189e-10 0 0 0 0 0 0 0 0 
0 0 0 0 0 0 0 0 0 
0 0 0 7.04586e-10 5.22805e-10 0 0 0 7.04489e-07 
9.31585e-09 0 7.35878e-07 4.33851e-09 2.43868e-09 0 0 0 0 
0 9.95687e-10 0 0 0 0 0 8.73862e-10 0 
0 1.13845e-09 1.38404e-09 0 0 0 0 0 0 
0 0 0 7.75842e-09 0 0 0 0 0 
0 0 0 0 1.25367e-09 0 6.54179e-07 4.89578e-09 2.97418e-09 
0 0 0 0 0 0 6.45957e-07 2.14529e-09 1.87415e-09 
0 0 7.01852e-09 3.61483e-09 2.58623e-09 0 0 0 4.46624e-10 
0 0 1.04595e-09 0 0 0 0 3.85655e-10 0 
0 0 0 0 0 0 0 0 0 
0 0 0 0 0 0 0 0 0 
0 0 0 0 0 0 2.54543e-09 2.61771e-09 0 
0 0 0 0 0 0 0 1.05713e-09 3.01596e-09 
0 0 0 0 0 0 0 0 0 
0 0 0 0 0 0 0 0 0 
6.95539e-07 0 0 7.17175e-07 4.72035e-09 0 0 0 0 
0 0 0 0 0 0 0 3.09503e-09 0 
0 0 0 1.90371e-09 1.52997e-09 0 4.70341e-09 0 3.60752e-09 
0 0 4.66856e-09 6.46172e-07 0 0 1.28096e-09 0 1.1268e-09 
0 0 0 0 2.31943e-09 0 0 0 0 
0 0 0 0 0 0 0 0 0 
0 0 0 0 0 0 0 0 0 
0 0 0 0 0 0 0 0 0 
0 0 0 1.85308e-09 1.24702e-09 0 1.87147e-09 3.28042e-09 3.03962e-10 
0 8.63842e-07 0 0 0 0 0 0 0 
0 0 0 0 0 0 0 7.14518e-07 0 
5.92682e-09 0 0 0 0 0 0 0 0 
0 0 0 8.95982e-10 1.70563e-09 0 1.86175e-09 4.16432e-09 0 
2.36248e-09 0 0 0 0 0 0 3.8819e-10 0 
0 0 0 0 0 0 0 9.50148e-10 0 
3.92242e-10 0 0 0 2.99631e-09 0 0 6.70779e-07 0 
0 0 0 0 0 0 0 0 0 
0 0 0 0 0 0 0 0 0 
0 0 0 0 0 0 0 0 0 
0 0 1.34512e-09 0 1.51523e-09 0 0 0 0 
3.78979e-09 1.54329e-09 8.76912e-07 0 0 0 0 0 4.06824e-10 
0 0 0 0 0 2.94543e-09 0 6.18816e-09 0 
0 0 3.04746e-09 2.98523e-09 0 0 0 0 0 
0 0 0 0 0 1.34392e-09 0 5.36141e-07 0 
0 3.4908e-09 0 0 0 0 2.70065e-09 3.29501e-09 0 
0 0 1.01885e-09 2.27161e-09 4.3385e-10 0 0 0 0 
0 0 0 0 0 0 1.91389e-09 0 0 
0 0 0 0 0 0 0 0 0 
0 0 0 0 0 0 0 0 0 
0 0 0 0 0 0 0 0 0 
0 0 0 0 0 0 0 0 0 
0 0 0 0 0 0 6.78648e-07 4.27738e-09 0 
0 6.84259e-10 0 0 0 0 0 0 0 
0 0 0 0 0 0 0 0 0 
0 0 0 0 0 0 0 0 5.62248e-09 
0 0 0 0 7.41278e-07 0 7.96236e-07 0 0 
0 0 0 0 0 0 0 0 0 
0 0 0 0 0 3.64122e-09 6.51642e-07 0 0 
0 0 0 0 0 0 0 0 0 
0 0 0 0 0 0 0 0 0 
0 0 0 0 0 0 0 0 0 
0 0 0 0 0 0 0 0 0 
2.28146e-09 1.60299e-09 0 0 7.09673e-10 4.81728e-09 1.40799e-09 4.8128e-09 8.66207e-10 
0 1.72776e-09 0 0 0 0 0 0 0 
8.9043e-07 9.04443e-07 0 3.87762e-09 0 5.55021e-10 0 0 4.82104e-09 
0 0 0 0 0 0 0 0 0 
4.59052e-10 1.74335e-09 2.02445e-09 0 0 0 0 3.88504e-09 0 
1.55529e-09 0 0 0 0 1.05684e-09 0 0 0 
1.12847e-10 0 0 0 0 0 2.59058e-09 2.43565e-09 0 
2.39586e-09 2.86851e-09 0 0 0 0 0 0 0 
0 0 0 0 0 0 0 0 0 
0 0 0 0 0 0 0 0 0 
0 0 0 0 0 0 0 0 0 
0 0 0 2.37511e-09 0 0 0 0 0 
0 5.7219e-10 0 0 0 0 0 0 0 
0 0 0 0 0 0 0 0 3.76027e-09 
0 0 2.25309e-09 0 3.78797e-09 0 0 0 0 
0 2.74657e-09 0 0 0 0 0 0 3.63738e-09 
0 0 0 7.2836e-07 0 1.59469e-09 0 0 0 
0 0 0 0 0 0 0 0 0 
0 0 0 0 0 0 0 0 0 
0 0 0 0 0 0 0 0 0 
0 0 0 0 0 0 0 0 0 
0 0 0 0 0 0 0 0 0 
0 0 0 3.81248e-09 7.07938e-07 0 9.10624e-09 0 0 
4.27741e-09 3.61955e-09 0 2.40012e-09 0 0 0 0 1.16386e-09 
0 0 0 0 0 0 0 0 0 
0 7.54446e-07 0 0 0 6.5404e-07 0 0 0 
0 7.5848e-10 0 0 0 0 0 0 0 
8.22618e-07 0 0 0 2.81383e-09 0 0 0 4.30622e-10 
0 0 0 0 0 0 0 0 0 
0 0 0 1.90068e-10 0 0 0 0 0 
0 0 0 0 0 0 0 0 0 
0 0 0 0 0 0 0 0 0 
0 0 0 6.55432e-10 0 0 0 0 0 
0 0 0 0 0 0 0 7.71104e-07 4.52538e-09 
0 0 0 6.49247e-07 0 0 1.4494e-09 0 0 
0 1.65126e-09 0 0 7.05112e-07 0 0 0 0 
0 0 1.07542e-08 0 0 0 4.39531e-09 0 0 
0 0 0 0 0 0 8.16797e-10 0 0 
0 0 9.53394e-10 0 7.40535e-07 6.74066e-09 0 0 0 
0 0 0 0 0 0 0 0 0 
0 0 0 0 0 0 0 0 0 
0 0 0 0 0 0 0 0 0 
0 0 0 0 0 0 0 0 0 
0 0 0 0 0 0 1.13969e-09 0 0 
0 0 0 0 2.96549e-10 0 0 0 5.53238e-09 
0 0 0 3.65789e-09 4.80381e-09 0 1.33628e-09 0 0 
0 0 4.81496e-10 0 0 0 0 9.8424e-10 0 
0 8.70766e-07 0 8.12388e-07 2.53736e-09 4.29885e-09 0 3.51497e-10 1.9451e-09 
1.40668e-09 0 0 0 0 0 0 0 0 
0 0 2.63678e-09 0 0 0 0 0 0 
0 0 0 0 0 0 0 0 0 
0 0 0 0 0 0 0 0 0 
0 0 0 0 0 0 0 0 0 
0 0 0 0 0 0 0 0 0 
0 0 0 0 0 0 0 0 0 
4.9364e-10 0 0 2.4976e-10 0 0 2.11334e-09 2.20962e-09 1.05941e-08 
7.26077e-07 0 0 1.59939e-09 0 0 0 0 0 
0 0 0 0 4.44017e-10 0 0 9.37553e-09 0 
0 8.49489e-07 0 0 0 0 0 0 0 
0 0 0 0 0 6.62149e-07 0 3.62837e-09 0 
0 1.95501e-09 0 0 4.33148e-09 0 0 0 0 
0 4.44311e-10 0 0 0 0 0 0 0 
0 0 6.04195e-10 0 0 0 0 6.94334e-10 0 
0 0 0 0 0 0 0 0 0 
0 0 0 0 0 0 0 0 0 
0 0 0 0 0 0 0 6.39929e-07 0 
0 0 0 0 0 0 0 0 0 
0 0 0 0 1.90876e-09 1.18038e-09 0 0 3.84045e-10 
0 0 0 0 0 0 0 0 0 
7.47044e-07 0 0 0 0 0 0 0 0 
0 0 0 0 0 0 5.06946e-09 0 3.68137e-09 
0 0 0 0 0 0 2.71506e-09 0 1.66633e-09 
9.82549e-10 0 0 0 0 0 0 0 0 
0 0 0 0 0 0 0 0 0 
0 0 0 0 0 0 0 0 0 
0 0 0 0 0 0 0 0 0 
0 0 0 0 0 0 2.18993e-09 2.32644e-09 0 
0 0 0 0 0 5.12821e-10 0 5.61146e-10 0 
1.55624e-09 1.37551e-09 1.74923e-10 0 0 0 0 0 0 
0 0 0 0 0 9.36036e-10 0 2.92257e-09 0 
0 0 0 0 0 0 0 1.53148e-09 0 
0 0 0 0 0 0 0 0 0 
4.48129e-09 0 0 8.37318e-07 0 8.33219e-07 9.26191e-09 0 0 
0 0 0 0 0 0 0 0 0 
3.65187e-10 0 0 0 3.64439e-09 0 0 0 0 
2.02911e-09 0 0 0 0 0 0 0 0 
0 0 0 0 0 0 0 0 0 
0 0 0 0 0 0 0 0 0 
0 0 0 0 1.63078e-09 0 0 0 0 
0 0 0 0 3.50832e-12 0 0 0 0 
0 0 0 0 0 0 0 0 0 
1.89999e-09 0 4.76438e-09 0 0 4.52665e-09 0 0 0 
0 0 0 0 0 0 0 0 0 
6.70136e-07 2.72119e-09 0 0 0 8.71689e-07 0 3.76622e-09 2.895e-09 
6.69959e-10 0 0 0 0 0 0 0 3.26686e-10 
0 0 0 0 4.19863e-09 0 0 0 7.10421e-07 
0 0 0 3.58755e-10 0 0 0 0 0 
0 0 0 0 0 0 0 0 0 
0 0 0 0 0 0 0 0 0 
0 0 0 0 0 0 0 6.40033e-07 0 
0 0 0 0 0 0 0 3.65727e-10 0 
0 0 0 0 6.44364e-07 0 0 0 0 
0 0 0 0 8.98067e-07 8.84247e-07 0 0 0 
0 0 0 0 0 0 0 0 0 
2.98353e-09 9.33864e-09 0 0 0 1.75527e-09 0 0 1.7055e-09 
4.59364e-12 0 0 0 0 5.36641e-10 0 0 0 
1.49062e-09 0 0 0 0 5.59585e-09 6.93378e-07 0 0 
0 0 4.21319e-10 0 0 0 0 0 0 
0 0 0 0 0 0 0 0 0 
0 0 0 0 0 0 0 0 0 
0 0 0 0 0 0 0 1.33076e-09 1.86514e-09 
0 0 0 0 0 0 0 0 0 
0 0 0 0 0 0 0 2.30209e-09 0 
0 0 0 0 0 1.13052e-08 0 0 0 
0 0 0 0 0 0 0 0 8.76846e-10 
0 0 0 0 0 0 0 0 0 
0 0 3.16263e-10 0 0 0 0 0 0 
0 0 1.68171e-09 0 0 0 0 1.80367e-09 0 
4.96217e-09 0 7.04803e-07 0 0 0 0 0 0 
0 0 0 0 0 0 0 0 0 
0 0 0 0 0 0 0 0 0 
0 0 0 0 0 0 0 0 0 
0 0 0 0 0 0 0 0 0 
0 0 0 0 0 2.54269e-09 0 0 0 
0 0 0 0 7.43654e-10 0 0 9.32885e-10 3.35409e-09 
0 0 0 0 6.90334e-10 0 0 0 0 
0 0 0 0 0 0 1.70821e-09 0 2.97228e-09 
2.74071e-09 0 0 0 0 0 0 0 0 
0 0 0 0 0 0 6.81476e-07 1.04301e-09 1.55094e-09 
0 0 4.04628e-09 2.53585e-09 0 0 0 0 0 
0 0 0 0 0 0 0 0 0 
0 0 0 0 0 0 0 0 0 
0 0 0 0 0 0 0 0 0 
0 0 0 5.31936e-10 0 0 0 0 0 
0 0 0 0 0 0 0 1.85285e-09 0 
0 0 0 0 1.96112e-09 3.23952e-09 6.72025e-07 0 0 
0 0 1.23553e-09 0 0 0 0 0 0 
0 0 0 0 0 0 0 0 0 
0 0 0 0 0 0 3.75971e-09 0 1.09453e-09 
1.19643e-09 0 0 6.49822e-07 0 1.73006e-09 0 0 0 
3.61385e-09 0 0 0 0 2.39168e-09 0 0 0 
0 0 0 0 0 0 0 0 0 
0 0 0 0 0 0 0 0 0 
0 0 0 0 0 1.85455e-09 0 0 0 
6.06243e-10 0 0 0 0 0 0 0 0 
0 0 0 0 0 0 6.44385e-07 0 0 
0 0 0 0 0 0 0 0 3.11807e-09 
0 0 0 0 0 0 0 0 0 
0 0 0 0 0 0 0 0 0 
0 0 1.39537e-09 0 0 2.25276e-09 5.73532e-09 6.45119e-07 0 
0 0 0 0 8.70378e-09 0 0 0 0 
0 1.56327e-09 0 0 0 0 0 0 0 
0 4.82729e-10 0 0 0 0 0 0 0 
0 0 0 0 0 0 0 0 0 
0 0 0 0 0 0 6.40598e-07 4.30541e-09 1.6526e-09 
0 0 0 0 3.21284e-12 0 0 0 0 
0 0 0 0 0 1.11265e-09 2.1635e-09 0 0 
0 0 6.22299e-10 0 0 0 0 1.20899e-09 0 
2.54335e-09 0 0 7.7957e-10 0 0 1.46884e-09 6.71518e-07 0 
0 7.87322e-10 0 0 0 0 0 0 0 
0 0 0 0 0 0 0 2.66828e-09 0 
0 9.13976e-11 0 0 0 0 0 0 1.10115e-09 
0 0 0 4.05129e-09 0 0 0 6.55653e-07 0 
0 0 0 0 0 0 0 0 0 
0 0 0 0 0 0 0 0 0 
0 0 0 0 8.71615e-10 0 0 0 2.73304e-09 
0 0 0 0 0 0 0 0 0 
0 0 0 0 0 0 0 0 7.03899e-10 
0 1.34188e-09 6.71214e-10 5.83352e-10 0 0 0 0 0 
0 0 0 0 7.02376e-10 0 2.37197e-09 0 0 
0 0 0 0 0 0 0 0 0 
0 1.51821e-10 0 0 0 6.44405e-07 4.50159e-09 4.38906e-09 0 
0 0 0 0 0 9.87116e-10 0 0 0 
3.71e-09 0 6.52188e-07 3.10137e-09 0 1.8373e-09 0 1.57456e-09 0 
0 0 0 0 0 0 0 0 0 
0 0 0 0 0 0 0 0 0 
0 0 0 0 0 0 0 0 0 
1.78589e-09 0 0 0 0 0 0 0 0 
0 0 2.87588e-10 0 6.54687e-10 0 0 0 0 
1.31464e-09 0 8.82887e-10 0 0 0 0 0 0 
0 0 0 6.0899e-10 0 0 0 0 0 
0 0 0 9.75992e-07 9.04682e-07 0 0 4.6751e-10 0 
0 0 0 0 0 0 0 0 0 
1.07029e-09 0 0 1.53796e-10 0 0 6.14834e-10 0 0 
0 0 1.17242e-09 0 0 0 0 0 0 
0 0 0 0 0 0 0 0 0 
0 0 0 0 0 0 0 0 0 
0 0 0 0 0 0 0 0 2.48569e-09 
8.97185e-10 0 0 0 0 0 0 0 0 
0 0 0 0 0 0 0 0 0 
0 3.6432e-10 0 0 0 0 0 7.17324e-10 3.4781e-10 
6.19767e-10 0 9.13412e-11 0 0 0 0 0 0 
0 0 0 8.2209e-07 0 0 7.41243e-09 0 0 
0 0 0 0 0 0 0 0 9.0743e-13 
0 0 0 0 0 0 0 0 0 
3.03544e-09 0 1.75038e-09 0 0 0 1.31627e-09 0 0 
0 0 1.97522e-09 0 0 0 0 0 0 
0 0 0 0 0 0 0 0 0 
0 0 0 0 0 0 0 0 0 
0 0 0 0 0 0 0 0 0 
8.67732e-10 0 0 0 0 0 2.14995e-09 0 3.49266e-10 
0 0 0 2.77768e-10 0 0 4.21748e-09 6.42758e-07 0 
0 0 0 0 1.76569e-09 0 0 0 0 
6.64859e-07 0 3.86593e-09 0 0 0 0 0 0 
0 0 0 0 0 0 0 0 0 
5.78162e-12 0 5.33466e-10 5.91009e-10 0 0 0 0 5.16343e-09 
6.61011e-07 0 0 1.06348e-09 0 0 3.35324e-11 0 0 
2.04989e-09 6.52016e-07 0 0 0 0 0 0 0 
0 0 0 0 0 0 0 0 0 
0 0 0 0 0 0 0 0 0 
0 0 0 6.16201e-09 0 0 0 0 0 
0 0 0 0 0 6.23605e-09 6.7275e-07 0 0 
5.35016e-10 0 0 0 0 0 0 0 0 
2.577e-09 0 0 0 0 0 2.76619e-10 1.73869e-09 0 
0 5.75692e-09 0 0 0 0 0 3.67631e-09 0 
0 7.91585e-10 0 0 0 0 0 0 0 
0 0 0 0 0 0 0 0 0 
0 0 0 2.7231e-09 0 0 0 0 1.97924e-09 
0 1.11015e-08 0 0 0 0 0 0 0 
0 0 0 0 0 0 0 0 0 
0 0 0 0 0 0 0 0 0 
0 0 0 6.40609e-07 0 0 0 0 0 
0 0 0 0 6.73678e-07 0 0 0 0 
0 0 0 0 0 0 0 3.71887e-09 0 
2.27784e-09 0 0 0 0 0 1.19531e-09 0 6.5186e-07 
4.5599e-09 3.39137e-09 0 0 0 0 0 1.77253e-09 0 
0 0 0 0 0 0 0 0 0 
0 0 0 0 0 0 0 0 2.16741e-09 
0 0 0 0 0 0 0 0 0 
0 0 2.48248e-09 0 0 0 0 0 0 
0 0 0 0 0 0 0 0 0 
0 0 0 0 0 0 0 0 0 
0 0 0 0 1.88059e-09 0 0 0 0 
0 0 0 8.02626e-10 0 0 1.32249e-09 0 0 
0 2.04757e-09 0 0 0 0 3.71651e-09 0 0 
2.37265e-09 0 9.47271e-10 0 0 0 0 0 0 
0 2.27711e-09 1.33088e-09 0 0 0 0 0 1.11865e-09 
0 0 1.68528e-09 6.63232e-07 5.19862e-09 0 0 0 0 
0 0 0 0 0 0 0 0 0 
0 0 0 0 0 1.48929e-09 0 2.15562e-09 0 
6.47808e-07 0 0 0 1.78888e-09 0 0 0 0 
0 0 0 0 0 0 0 0 0 
0 0 0 0 0 0 0 0 0 
0 0 0 7.44066e-10 0 7.57322e-10 0 0 1.02713e-09 
4.79703e-10 7.29907e-10 0 3.16574e-09 0 0 0 0 0 
2.31399e-09 2.4893e-09 7.30984e-07 3.61689e-09 0 3.40816e-09 0 6.57985e-07 2.53104e-09 
0 0 0 4.35912e-10 1.42047e-09 2.34475e-09 1.31785e-09 0 0 
0 2.18494e-09 0 4.97872e-10 0 0 0 0 0 
0 0 0 0 0 0 0 0 0 
0 0 0 0 0 0 0 0 4.09717e-10 
0 0 0 9.72848e-07 1.07376e-06 0 0 0 0 
0 0 0 0 4.87042e-10 0 0 0 0 
0 0 0 0 0 0 0 0 0 
0 0 0 0 0 0 0 0 0 
0 0 0 0 0 0 0 0 0 
0 0 0 0 0 7.01614e-07 2.24282e-09 0 1.93459e-09 
0 0 4.33149e-09 1.33798e-09 0 0 0 0 1.95946e-09 
2.47837e-09 0 0 0 0 6.66608e-07 1.79072e-09 1.41525e-09 1.64018e-09 
0 0 0 0 0 0 0 0 0 
0 0 0 0 0 0 3.91625e-09 0 0 
0 0 0 0 0 0 0 0 0 
0 0 0 0 0 9.76708e-07 0 0 4.12532e-09 
1.65082e-09 0 0 0 0 1.30807e-09 0 0 7.5924e-07 
0 0 1.51036e-09 4.15185e-10 0 0 0 0 0 
0 0 0 0 0 0 0 0 0 
0 0 0 0 0 0 0 0 0 
0 0 0 0 0 0 0 0 0 
0 2.42003e-09 0 0 7.36587e-07 0 2.03967e-09 0 2.95939e-09 
8.41752e-10 0 0 4.0019e-09 0 0 0 0 0 
2.46108e-09 0 0 4.14435e-10 0 7.85013e-10 0 8.16025e-10 0 
0 0 0 0 0 0 0 6.74751e-07 0 
0 1.99103e-09 0 0 0 0 0 0 0 
0 0 0 1.48917e-09 0 0 0 0 0 
0 3.95153e-09 0 0 0 0 0 0 0 
0 7.62882e-07 0 0 0 0 0 0 0 
0 0 0 0 0 0 0 0 0 
0 0 0 0 0 0 0 0 0 
1.19904e-10 0 5.92227e-10 0 0 6.51502e-09 6.90566e-07 3.30477e-09 0 
1.63863e-09 0 0 2.27588e-09 0 0 4.05253e-10 0 1.61798e-09 
0 0 3.99083e-09 6.59145e-07 1.11545e-09 1.17525e-09 0 0 0 
0 3.63003e-12 1.32068e-09 0 1.5756e-09 0 7.74964e-10 0 0 
0 0 2.41416e-09 7.57005e-07 8.29288e-09 0 7.74253e-10 0 0 
0 0 7.58308e-09 0 0 0 0 0 3.6365e-10 
0 4.97235e-10 1.35163e-09 0 0 0 9.69481e-10 4.45633e-09 8.80276e-10 
0 6.62578e-07 3.27246e-09 2.1139e-09 0 1.4162e-09 0 0 0 
0 0 0 3.01738e-09 0 0 0 0 0 
0 0 0 0 0 0 0 0 0 
0 0 0 0 0 0 0 0 0 
0 0 0 0 0 0 2.97788e-09 0 0 
0 0 0 7.81567e-10 0 0 4.70517e-10 0 3.11377e-09 
0 0 0 0 0 9.99409e-09 0 1.3545e-09 0 
6.66822e-07 0 2.08833e-09 0 0 2.84633e-09 0 0 0 
0 0 0 0 0 7.58948e-07 0 1.64668e-09 0 
0 0 0 4.39442e-09 0 0 0 0 0 
0 0 0 0 0 1.16426e-10 1.9879e-09 2.74947e-10 0 
0 2.85864e-09 0 0 0 0 0 0 0 
1.3802e-10 0 0 0 2.78229e-09 0 0 0 0 
0 0 0 0 0 0 0 0 0 
0 0 0 0 0 0 0 0 0 
0 0 0 0 0 0 0 0 0 
0 1.39113e-09 0 2.4511e-10 4.79142e-10 0 0 0 6.68704e-07 
0 0 1.66016e-09 0 0 0 0 4.0831e-09 0 
0 0 5.98873e-10 2.77244e-09 0 0 6.56815e-07 0 0 
0 0 0 1.72893e-09 0 0 0 0 0 
0 0 0 0 9.26071e-07 9.53989e-07 1.79496e-09 0 0 
0 0 0 6.59534e-10 6.50977e-07 0 0 0 0 
0 0 2.96864e-09 0 0 0 0 0 0 
0 0 5.47779e-09 0 0 0 0 0 0 
0 0 0 0 0 0 0 0 0 
0 0 0 0 0 0 0 0 0 
0 0 0 0 0 0 0 0 0 
0 0 0 4.83596e-10 0 0 0 0 0 
0 0 0 0 0 0 0 0 0 
0 0 0 0 0 8.92589e-10 0 0 0 
1.72205e-09 1.40888e-09 0 0 0 0 1.97363e-09 0 1.12565e-09 
0 0 0 0 0 0 0 0 0 
0 0 0 0 0 4.23392e-09 2.95499e-09 0 0 
1.56876e-09 0 0 0 0 1.64125e-10 0 4.6807e-10 0 
3.87852e-09 0 0 5.07596e-09 8.1474e-07 0 0 0 0 
0 0 0 0 0 0 0 0 0 
0 0 0 0 0 0 0 0 0 
0 0 0 0 2.25262e-10 0 0 0 0 
0 0 0 0 0 0 0 9.44974e-10 0 
0 0 0 1.07997e-09 0 0 0 0 0 
0 0 0 0 0 3.45169e-09 3.20748e-09 0 2.684e-09 
0 1.55429e-09 1.32928e-09 0 0 0 0 0 0 
0 0 0 0 0 0 0 9.92273e-07 9.87125e-09 
0 0 0 0 2.4623e-09 0 0 0 2.48341e-09 
7.70486e-10 0 0 2.19565e-09 0 0 0 0 0 
0 0 4.01124e-09 0 9.73038e-07 0 0 0 1.10001e-09 
0 0 0 0 0 0 0 0 0 
0 0 0 0 0 0 0 0 0 
0 0 0 0 0 0 0 0 1.73954e-09 
5.02214e-09 0 0 0 5.06163e-10 0 0 0 6.46927e-07 
4.5333e-09 4.94459e-10 0 1.97963e-09 0 0 1.92787e-09 0 0 
0 0 0 0 0 1.10612e-09 0 6.66438e-07 0 
0 0 0 3.39519e-10 0 0 0 0 0 
9.33922e-10 0 0 0 2.38472e-09 0 0 0 9.31416e-07 
0 0 0 0 7.39943e-07 0 0 0 0 
0 0 0 0 0 0 0 1.89253e-09 2.91858e-09 
0 6.71936e-07 1.50191e-09 3.8059e-10 0 9.10182e-07 0 0 6.87112e-10 
1.17439e-09 0 0 0 0 0 0 0 0 
0 0 0 0 0 0 0 0 0 
0 0 0 0 0 0 0 0 0 
0 0 0 7.2879e-10 0 0 0 0 0 
2.95968e-09 1.94747e-09 0 1.01765e-09 0 0 1.47404e-09 0 0 
0 0 0 0 0 0 0 0 1.12805e-09 
0 1.29425e-09 2.63045e-09 0 0 2.46323e-09 0 0 0 
1.12093e-09 0 0 2.03338e-09 0 8.26506e-10 1.507e-09 0 0 
6.19084e-09 0 0 9.39403e-07 0 1.28467e-09 0 3.71627e-09 0 
9.56482e-10 4.50169e-09 0 2.2306e-09 3.04703e-09 0 6.60402e-07 0 0 
2.20202e-09 0 3.94786e-09 1.65638e-09 3.49644e-09 0 0 0 0 
0 0 0 0 0 0 0 0 0 
0 0 0 0 0 0 0 0 0 
0 0 0 0 0 0 0 0 0 
0 6.1387e-09 6.71942e-07 5.51961e-09 0 4.59399e-10 0 0 0 
2.50698e-10 6.58878e-10 1.6725e-09 8.39116e-10 0 0 0 0 6.47502e-07 
0 0 0 0 0 0 0 0 0 
0 0 6.74243e-09 0 0 4.0719e-09 0 1.2543e-09 0 
0 1.55242e-09 0 0 0 9.92607e-10 0 4.00327e-12 0 
0 0 1.43661e-09 0 9.04138e-07 0 0 4.19588e-09 0 
6.90781e-07 0 1.37327e-09 6.80772e-07 4.27321e-09 0 0 4.95521e-09 2.72741e-09 
0 2.30563e-09 0 0 0 0 0 0 2.00658e-09 
1.74956e-09 8.67782e-10 0 0 0 0 0 0 0 
0 0 0 0 0 0 0 0 0 
0 0 0 0 0 0 0 0 0 
0 0 0 0 0 6.65991e-10 1.22675e-10 0 0 
0 0 0 0 0 0 0 0 0 
1.1893e-09 0 0 0 4.95668e-10 0 0 0 0 
1.38897e-09 0 0 0 0 0 7.58213e-07 0 0 
0 1.4171e-09 0 0 0 0 0 0 0 
0 0 0 0 0 0 0 1.18384e-09 0 
0 6.83204e-10 0 9.6676e-10 4.42459e-09 0 5.8973e-09 0 0 
0 0 0 0 0 5.25622e-09 4.13069e-09 0 9.37211e-10 
0 0 0 0 0 0 0 0 0 
0 0 0 0 0 0 0 0 0 
0 0 0 0 0 0 0 0 0 
0 0 0 0 0 3.74841e-09 0 0 0 
3.82202e-10 0 3.10826e-09 0 0 0 4.68426e-11 0 1.13713e-09 
0 0 0 0 0 0 0 0 0 
4.33136e-10 0 0 1.44822e-09 0 0 0 0 2.80277e-09 
3.12368e-09 0 0 0 6.74265e-07 0 0 0 0 
0 0 1.44744e-09 0 0 0 0 0 0 
0 0 5.7164e-10 0 0 0 0 2.34315e-09 0 
9.64672e-10 0 4.17693e-09 0 0 7.71742e-07 0 0 0 
0 0 0 0 0 0 0 0 0 
0 0 0 0 0 0 0 0 0 
0 0 0 0 0 0 0 1.62783e-10 0 
9.52802e-10 0 0 8.68136e-07 8.84626e-07 0 0 0 0 
0 0 0 6.45044e-09 0 0 0 0 3.04808e-10 
8.05806e-10 0 0 1.91746e-09 0 0 0 0 0 
0 0 0 0 0 0 0 8.6657e-07 1.1854e-09 
0 0 0 0 4.89245e-09 0 0 0 6.69384e-07 
0 0 0 0 6.55774e-07 0 0 0 0 
3.79575e-10 0 0 2.56498e-09 0 0 0 0 0 
0 0 6.78641e-07 0 0 0 0 7.60093e-07 0 
0 0 3.67154e-10 0 0 0 0 0 0 
0 0 0 0 0 0 0 0 0 
0 0 0 0 0 0 0 0 0 
0 1.55152e-09 0 0 0 0 5.58984e-09 0 0 
1.75479e-09 0 0 0 0 6.40936e-07 7.46481e-09 3.25486e-09 0 
0 9.12166e-10 0 1.90682e-09 6.46925e-07 0 1.7189e-09 0 0 
3.17791e-10 0 0 0 0 0 0 0 0 
0 0 0 0 4.67423e-09 6.73846e-10 0 0 7.36795e-10 
0 5.61141e-09 0 0 0 0 0 1.08425e-09 0 
1.79431e-09 0 6.54251e-07 0 0 0 2.46623e-09 0 0 
6.78367e-07 0 0 2.72906e-09 0 1.42462e-09 0 0 0 
0 0 0 0 0 0 0 0 0 
0 0 0 0 0 0 0 0 0 
0 0 0 0 0 0 0 0 0 
0 0 6.84066e-10 0 1.87259e-09 0 0 0 0 
0 0 1.46721e-09 0 0 0 1.68546e-09 0 0 
0 0 0 0 0 3.14855e-09 0 0 0 
0 4.75227e-10 0 0 0 0 0 9.80935e-07 1.14324e-06 
1.03672e-06 0 0 1.8233e-09 7.65529e-07 0 0 3.20449e-09 0 
0 0 0 0 0 0 0 0 0 
0 0 2.06226e-09 2.42853e-09 0 1.03436e-09 3.4205e-09 0 0 
1.2264e-09 0 0 0 0 0 0 1.63508e-09 0 
3.0543e-09 0 0 0 0 0 0 0 0 
0 0 0 0 0 0 0 0 0 
0 0 0 0 0 0 0 0 0 
0 0 0 0 0 3.1559e-09 0 0 7.27492e-09 
8.67097e-07 0 0 0 0 0 0 0 0 
0 0 0 0 0 0 0 0 1.04596e-09 
0 0 0 0 0 0 0 0 0 
2.20785e-09 0 0 0 0 0 5.93544e-09 7.27009e-07 0 
0 3.90753e-09 0 0 0 5.54292e-10 0 0 0 
0 9.82665e-10 0 0 0 0 0 0 6.57701e-07 
0 0 0 0 4.463e-10 0 0 5.27134e-10 0 
0 0 0 0 0 0 0 0 0 
0 0 0 0 0 0 0 0 0 
0 0 0 0 0 0 0 0 0 
0 0 0 0 0 0 0 0 0 
0 8.572e-07 0 6.75905e-10 0 0 0 0 0 
0 0 0 0 0 0 9.39575e-10 0 1.07177e-09 
0 0 0 0 0 0 1.01854e-09 0 0 
0 1.7075e-09 0 2.37226e-09 0 7.32738e-07 0 0 4.13825e-09 
0 0 0 0 4.28697e-10 0 0 0 0 
4.64138e-10 0 0 0 0 0 0 0 0 
0 0 2.07495e-09 0 0 0 0 0 0 
0 0 0 4.4456e-10 0 0 0 0 0 
0 0 0 0 0 0 0 0 0 
0 0 0 0 0 0 0 0 0 
0 0 0 0 0 0 0 0 0 
0 0 1.81616e-08 0 2.51133e-09 0 0 0 0 
0 0 0 0 0 0 0 0 0 
0 0 0 0 0 1.27692e-09 0 2.56254e-09 0 
4.36064e-09 7.03547e-07 2.90593e-09 0 0 0 6.7783e-09 3.96174e-09 5.90447e-09 
0 0 0 0 8.58091e-07 0 0 0 0 
0 0 0 0 0 0 0 0 0 
0 0 1.53037e-09 7.0541e-10 0 2.25297e-09 2.2696e-09 0 0 
1.23955e-09 0 0 0 0 0 0 0 0 
0 0 0 0 0 0 0 0 0 
0 0 0 0 0 0 0 0 0 
0 0 0 0 0 0 0 0 0 
0 0 1.93916e-09 4.27829e-10 0 0 0 0 0 
0 3.49546e-10 0 0 0 0 0 0 0 
2.3239e-10 0 0 0 0 3.15439e-09 0 5.79351e-09 1.23939e-09 
0 0 1.98839e-09 0 9.26795e-10 1.73841e-09 0 1.90838e-09 0 
1.2675e-09 0 0 0 2.60907e-09 8.54071e-07 0 3.92137e-09 1.9257e-09 
0 0 0 0 0 0 0 0 0 
0 0 0 0 5.61212e-10 5.80985e-10 0 0 2.31492e-09 
0 0 0 0 0 0 0 0 0 
0 0 0 0 0 0 0 0 0 
0 0 0 0 0 0 0 0 0 
0 0 0 0 0 0 0 4.06529e-09 0 
0 0 6.95152e-10 1.03653e-09 0 0 0 0 0 
0 3.85621e-10 0 0 0 0 0 0 0 
0 0 0 0 0 0 1.13795e-09 3.32668e-09 0 
0 0 0 1.72881e-09 0 0 0 0 0 
6.68125e-10 0 0 0 0 0 0 0 0 
0 0 0 0 0 8.90204e-10 0 0 0 
0 0 0 0 0 0 1.46699e-09 0 6.48155e-07 
0 1.68201e-09 0 0 0 0 0 0 0 
0 0 0 0 0 0 0 0 0 
0 0 0 0 0 0 0 0 0 
0 0 0 0 0 0 0 8.18893e-10 6.40159e-07 
0 0 1.16093e-09 0 0 0 2.33284e-10 0 1.23585e-09 
8.00303e-10 0 0 0 0 0 0 0 0 
0 0 0 0 4.5781e-10 0 0 0 6.85457e-10 
0 0 0 0 0 0 0 0 0 
0 0 0 0 0 1.50092e-09 0 5.10031e-09 0 
1.75509e-09 0 1.12681e-10 0 4.27894e-09 0 0 0 0 
0 0 0 0 0 0 0 0 3.0813e-09 
2.16494e-09 0 0 0 0 0 0 0 0 
0 0 0 0 0 0 0 0 0 
0 0 0 0 0 0 0 0 0 
0 0 0 0 0 0 0 0 2.2332e-09 
1.74607e-09 0 7.5432e-10 8.29553e-10 0 0 9.82941e-10 0 0 
0 0 0 0 0 0 0 0 0 
0 0 0 0 7.88475e-10 0 0 0 1.3553e-09 
0 0 0 0 0 0 0 0 0 
0 0 0 0 0 0 0 0 0 
0 0 2.79724e-09 0 1.45001e-09 6.77097e-07 0 0 0 
0 0 0 0 0 0 0 0 0 
0 0 0 0 0 0 0 1.28724e-09 0 
0 0 0 0 0 0 0 0 0 
0 0 0 0 0 0 0 0 0 
0 0 0 0 0 0 0 0 0 
0 2.09532e-09 1.92568e-09 0 0 0 0 2.89194e-09 6.54265e-07 
4.66035e-09 0 0 1.96807e-09 0 0 0 0 0 
1.37442e-10 0 0 0 0 6.78081e-10 0 0 0 
0 0 0 0 0 0 0 0 0 
0 0 0 0 0 0 0 0 0 
0 0 2.4817e-09 0 0 0 0 0 3.42598e-09 
0 0 5.45765e-10 0 0 0 0 0 0 
1.07868e-09 0 0 0 0 0 0 0 0 
0 0 0 7.0599e-10 1.4388e-10 0 0 0 0 
0 0 0 0 0 0 0 0 0 
0 0 0 0 0 0 0 0 0 
0 0 0 0 0 0 0 0 0 
0 0 4.24926e-09 1.95544e-10 6.67885e-07 0 0 1.58182e-09 0 
0 0 0 0 0 0 0 0 0 
0 0 0 0 1.10539e-09 0 0 2.54882e-09 0 
0 0 0 0 0 4.19707e-10 0 0 0 
0 9.21518e-10 0 0 5.53492e-09 0 6.25777e-09 0 0 
4.64174e-09 6.32302e-10 0 0 0 0 0 0 0 
2.93694e-10 3.50666e-10 2.06924e-09 0 6.48106e-07 4.27451e-09 0 0 3.10973e-09 
0 1.95701e-09 0 0 0 0 0 0 0 
0 0 0 0 0 0 0 0 0 
0 0 0 0 0 0 0 0 0 
0 0 0 0 0 0 0 0 0 
0 0 0 0 0 0 0 0 0 
0 0 0 9.77778e-10 3.22042e-09 0 0 2.41044e-09 0 
2.37238e-09 0 0 0 0 0 3.01027e-09 6.41554e-07 0 
4.67609e-09 0 0 0 0 0 0 0 0 
6.42821e-07 4.83683e-09 0 1.65384e-09 0 0 0 0 0 
9.26047e-09 6.58072e-07 0 2.51999e-09 0 0 0 0 0 
0 0 1.06028e-09 0 0 1.49299e-09 0 0 0 
0 0 8.4984e-07 0 0 0 0 0 0 
0 0 0 0 0 0 0 0 0 
0 0 0 0 0 0 0 0 0 
0 0 0 0 0 0 0 0 0 
0 0 0 0 0 0 4.79937e-09 0 0 
1.6233e-09 3.12348e-10 0 0 6.0437e-10 0 6.65469e-07 0 3.92383e-09 
0 0 0 0 0 0 2.13587e-09 6.51612e-10 0 
0 0 0 0 1.9605e-10 0 0 0 0 
0 0 1.94407e-09 0 0 0 0 0 0 
0 0 1.85773e-09 2.67175e-09 0 0 0 0 0 
0 0 0 0 0 0 0 0 1.31873e-09 
9.31593e-10 2.69995e-09 0 8.49614e-07 5.4147e-09 0 0 0 0 
0 0 0 0 0 0 0 0 0 
0 0 0 0 0 0 0 0 0 
0 0 0 0 0 0 0 0 1.22229e-09 
0 2.13841e-09 0 0 0 0 6.88908e-07 2.67425e-09 0 
1.09207e-09 1.36716e-09 0 0 0 0 0 0 0 
0 0 0 8.06045e-07 1.06339e-09 0 0 0 0 
0 6.18469e-10 0 0 0 0 0 4.67239e-10 0 
2.38338e-09 0 0 0 0 0 0 0 0 
1.23483e-09 0 0 0 0 0 0 0 0 
0 0 0 0 0 0 0 0 0 
0 0 0 0 0 0 1.38805e-09 6.47272e-10 0 
0 0 0 0 0 0 0 0 0 
0 0 0 0 0 0 0 0 0 
0 0 0 0 0 0 3.5538e-09 1.34442e-09 0 
0 0 0 3.00316e-09 0 0 0 0 3.27917e-09 
0 0 0 0 0 0 0 0 0 
0 0 7.28748e-07 0 2.75633e-09 7.80234e-07 9.47746e-09 0 0 
1.75291e-09 1.10341e-09 0 0 0 0 0 0 0 
0 0 0 0 0 0 0 0 0 
0 0 0 0 0 0 0 0 0 
0 0 0 0 0 0 0 0 0 
0 0 0 0 0 0 2.1154e-09 2.54044e-09 0 
0 0 0 0 0 0 0 0 0 
0 0 0 0 0 0 0 0 0 
0 0 0 0 0 0 0 6.43325e-07 0 
0 0 0 0 8.73279e-07 3.99283e-09 0 0 0 
0 0 0 0 0 0 0 6.55426e-07 1.89184e-09 
0 0 3.48749e-09 7.80257e-09 0 0 0 0 3.82057e-09 
0 0 0 0 0 0 0 6.58849e-10 0 
0 0 0 0 8.85547e-10 0 0 0 0 
0 0 0 0 0 0 0 0 0 
0 0 0 0 0 0 0 0 0 
0 0 0 0 0 0 2.92525e-10 7.52263e-10 0 
0 0 0 0 0 0 0 0 0 