# vtk DataFile Version 5.1
vtk output
ASCII
DATASET STRUCTURED_POINTS
DIMENSIONS 100 100 1
SPACING 1 1 1
ORIGIN 0 0 0
POINT_DATA 10000
FIELD FieldData 6
feature_1 1 10000 float
0 0 0 0 0 0 0 0 0 
0 0 0 0 0 0 0 0 0 
0 0 0 0 0 0 0 0 0 
0 0 0 0 0 0 0 0 0 
0 0 0 0 0 0 0 0 0 
0 0 0 0 0 0 0 0 0 
0 0 0 0 0 0 0 0 0 
0 0 0 0 0 0 0 0 0 
0 0 0 0 0 0 0 0 0 
0 0 0 0 0 0 0 0 0 
0 0 0 0 0 0 0 0 0 
0 0 0 0 0 0 0 0 0 
0 0 0 0 0 0 0 0 0 
0 0 0 0 0 0 0 0 0 
0 0 0 0 0 0 0 0 0 
0 0 0 0 0 0 0 0 0 
0 0 0 0 0 0 0 0 0 
0 0 0 0 0 0 0 0 0 
0 0 0 0 0 0 0 0 0 
0 0 0 0 0 0 0 0 0 
0 0 0 0 0 0 0 0 0 
0 0 0 0 0 0 0 0 0 
0 0 0 0 0 0 0 0 0 
0 0 0 0 0 0 0 0 0 
0 0 0 0 0 0 0 0 0 
0 0 0 0 0 0 0 0 0 
0 0 0 0 0 0 0 0 0 
0 0 0 0 0 0 0 0 0 
0 0 0 0 0 0 0 0 0 
0 0 0 0 0 0 0 0 0 
0 0 0 0 0 0 0 0 0 
0 0 0 0 0 0 0 0 0 
0 0 0 0 0 0 0 0 0 
0 0 0 0 0 0 0 0 0 
0 0 0 0 0 0 0 0 0 
0 0 0 0 0 0 0 0 0 
0 0 0 0 0 0 0 0 0 
0 0 0 0 0 0 0 0 0 
0 0 0 0 0 0 0 0 0 
0 0 0 0 0 0 0 0 0 
0 0 0 0 0 0 0 0 0 
0 0 0 0 0 0 0 0 0 
0 0 0 0 0 0 0 0 0 
0 0 0 0 0 0 0 0 0 
0 0 0 0 0 0 0 0 0 
0 0 0 0 0 0 0 0 0 
0 0 0 0 0 0 0 0 0 
0 0 0 0 0 0 0 0 0 
0 0 0 0 0 0 0 0 0 
0 0 0 0 0 0 0 0 0 
0 0 0 0 0 0 0 0 0 
0 0 0 0 0 0 0 0 0 
0 0 0 0 0 0 0 0 0 
0 0 0 0 0 0 0 0 0 
0 0 0 0 0 0 0 0 0 
0 0 0 0 0 0 0 0 0 
0 0 0 0 0 0 0 0 0 
0 0 0 0 0 0 0 0 0 
0 0 0 0 0 0 0 0 0 
0 0 0 0 0 0 0 0 0 
0 0 0 0 0 0 0 0 0 
0 0 0 0 0 0 0 0 0 
0 0 0 0 0 0 0 0 0 
0 0 0 0 0 0 0 0 0 
0 0 0 0 0 0 0 0 0 
0 0 0 0 0 0 0 0 0 
0 0 0 0 0 0 0 0 0 
0 0 0 0 0 0 0 0 0 
0 0 0 0 0 0 0 0 0 
0 0 0 0 0 0 0 0 0 
0 0 0 0 0 0 0 0 0 
0 0 0 0 0 0 0 0 0 
0 0 0 0 0 0 0 0 0 
0 0 0 0 0 0 0 0 0 
0 0 0 0 0 0 0 0 0 
0 0 0 0 0 0 0 0 0 
0 0 0 0 0 0 0 0 0 
0 0 0 0 0 0 0 0 0 
0 0 0 0 0 0 0 0 0 
0 0 0 0 0 0 0 0 0 
0 0 0 0 0 0 0 0 0 
0 0 0 0 0 0 0 0 0 
0 0 0 0 0 0 0 0 0 
0 0 0 0 0 0 0 0 0 
0 0 0 0 0 0 0 0 0 
0 0 0 0 0 0 0 0 0 
0 0 0 0 0 0 0 0 0 
0 0 0 0 0 0 0 0 0 
0 0 0 0 0 0 0 0 0 
0 0 0 0 0 0 0 0 0 
0 0 0 0 0 0 0 0 0 
0 0 0 0 0 0 0 0 0 
0 0 0 0 0 0 0 0 0 
0 0 0 0 0 0 0 0 0 
0 0 0 0 0 0 0 0 0 
0 0 0 0 0 0 0 0 0 
0 0 0 0 0 0 0 0 0 
0 0 0 0 0 0 0 0 0 
0 0 0 0 0 0 0 0 0 
0 0 0 0 0 0 0 0 0 
0 0 0 0 0 0 0 0 0 
0 0 0 0 0 0 0 0 0 
0 0 0 0 0 0 0 0 0 
0 0 0 0 0 0 0 0 0 
0 0 0 0 0 0 0 0 0 
0 0 0 0 0 0 0 0 0 
0 0 0 0 0 0 0 0 0 
0 0 0 0 0 0 0 0 0 
0 0 0 0 0 0 0 0 0 
0 0 0 0 0 0 0 0 0 
0 0 0 0 0 0 0 0 0 
0 0 0 0 0 0 0 0 0 
0 0 0 0 0 0 0 0 0 
0 0 0 0 0 0 0 0 0 
0 0 0 0 0 0 0 0 0 
0 0 0 0 0 0 0 0 0 
0 1.61415e-09 0 0 0 5.11476e-11 0 0 0 
0 0 0 0 0 0 0 2.3465e-09 5.1219e-10 
0 0 0 0 0 0 0 0 0 
0 0 0 0 0 0 0 0 0 
0 0 0 0 0 0 0 0 0 
0 0 0 0 0 0 0 0 0 
0 0 0 0 0 0 0 0 0 
0 0 0 0 0 0 0 0 0 
0 0 0 0 0 0 0 0 0 
0 0 0 0 0 0 0 0 0 
0 0 0 0 0 0 0 0 1.22484e-09 
0 0 0 0 0 0 0 0 0 
0 0 0 0 0 0 0 0 0 
0 0 0 0 0 0 0 0 0 
0 0 0 0 0 0 0 0 0 
0 0 0 0 0 0 0 0 0 
0 0 0 0 0 0 0 0 0 
0 0 0 0 0 0 0 0 0 
0 0 0 0 0 0 0 0 0 
0 0 0 0 0 0 0 0 0 
0 0 0 0 0 0 0 0 0 
0 0 0 0 0 0 0 0 0 
0 0 0 7.92632e-07 6.05753e-09 2.55405e-09 0 1.14586e-09 0 
0 0 0 0 0 0 1.92664e-09 1.10318e-09 6.44914e-07 
1.67037e-09 0 0 0 0 0 0 0 0 
0 0 0 0 0 0 0 0 0 
0 0 0 0 0 0 0 0 0 
0 0 0 0 0 0 0 0 0 
0 0 0 0 0 0 0 0 0 
0 0 0 0 0 0 0 0 0 
0 0 0 0 0 0 0 0 0 
0 0 0 0 4.79974e-10 0 0 0 0 
0 0 0 1.3161e-09 0 0 0 0 0 
3.05976e-09 0 0 8.33295e-07 0 6.56159e-09 0 0 0 
7.56966e-10 0 0 0 0 0 0 0 0 
0 0 1.69631e-09 1.26421e-09 8.11794e-10 0 0 0 0 
0 0 0 0 0 0 0 0 0 
0 1.72758e-09 0 0 0 0 0 0 0 
0 0 0 0 0 0 0 0 0 
0 0 0 0 0 0 0 0 0 
0 0 0 0 0 0 0 0 0 
0 0 0 0 0 0 0 0 0 
0 0 0 0 4.35099e-09 6.46933e-07 0 0 0 
0 0 0 1.66943e-09 0 7.54443e-09 0 0 1.27127e-09 
0 0 0 0 0 0 0 0 1.48255e-09 
0 0 0 0 0 0 0 0 0 
0 0 0 0 0 0 0 0 0 
0 0 0 0 0 0 1.03381e-09 0 0 
6.46293e-07 1.33867e-09 0 9.22646e-10 0 0 0 0 0 
0 0 0 0 0 0 0 0 0 
0 0 0 0 0 0 0 0 0 
0 0 0 0 0 0 0 0 0 
0 0 0 0 0 0 0 0 0 
0 0 0 0 0 0 0 0 0 
0 0 0 0 1.10772e-09 3.90909e-09 0 4.2657e-09 2.63929e-09 
0 0 0 0 0 0 7.986e-07 0 0 
1.03955e-09 0 0 0 0 0 0 0 0 
0 0 1.43817e-09 0 0 0 0 0 0 
0 0 0 0 9.53311e-10 0 0 0 0 
0 3.41527e-11 0 0 4.40518e-10 0 0 0 0 
0 0 0 0 0 0 0 0 0 
0 0 0 0 0 0 0 0 0 
0 0 0 0 0 0 0 0 0 
0 0 0 0 0 0 0 0 0 
0 0 0 0 0 0 1.99117e-09 0 0 
6.7532e-10 0 0 3.65809e-10 0 0 2.37336e-09 0 0 
0 0 8.92188e-10 0 0 7.41771e-07 1.20791e-08 0 0 
0 0 6.89592e-07 0 8.22671e-10 9.07632e-10 0 0 0 
0 0 0 0 1.46826e-09 0 1.8156e-09 0 1.32939e-09 
0 2.0907e-09 0 0 0 0 0 0 0 
0 0 0 4.56299e-10 0 0 0 0 0 
0 0 0 0 0 0 0 0 0 
0 0 0 0 0 0 0 0 0 
0 0 0 0 0 0 0 0 0 
0 0 0 0 0 0 0 0 0 
0 0 0 0 0 0 1.13242e-09 5.01596e-09 0 
1.98987e-09 0 0 0 0 0 0 0 2.03965e-09 
1.6756e-09 0 0 0 1.30587e-09 1.71129e-09 0 0 2.24613e-09 
0 0 0 0 0 0 6.52865e-10 0 0 
0 0 0 0 0 0 0 7.1901e-07 0 
7.19193e-07 7.92128e-09 0 0 0 0 0 0 6.67373e-07 
0 0 0 0 0 0 0 0 0 
0 0 0 0 0 0 0 0 0 
0 0 0 0 0 0 0 0 0 
0 0 0 0 0 0 0 0 0 
0 0 0 0 0 0 0 0 0 
0 0 0 0 0 3.53546e-09 0 1.40723e-09 0 
0 0 0 0 0 0 0 0 1.8354e-09 
0 0 0 0 0 0 0 0 0 
0 0 0 0 0 0 1.77067e-09 0 0 
0 0 0 0 0 0 0 0 0 
0 0 2.22457e-09 0 0 0 0 9.68287e-10 0 
0 0 2.06468e-09 2.00852e-09 1.38359e-09 0 0 0 0 
0 0 0 0 0 0 0 0 0 
0 0 0 0 0 0 0 0 0 
0 0 0 0 0 0 0 0 0 
0 0 0 0 0 0 0 0 0 
0 0 0 0 0 0 0 1.70767e-09 1.56104e-09 
3.82178e-09 6.49515e-07 0 0 0 0 0 0 0 
0 0 0 0 6.50043e-07 0 0 0 0 
0 8.98406e-07 9.15271e-07 0 1.9264e-09 7.20257e-07 0 0 0 
0 0 0 0 0 0 0 1.9659e-09 0 
0 1.55722e-09 0 0 0 1.29347e-09 0 1.74028e-09 0 
1.8422e-09 0 8.56567e-10 1.37214e-09 1.0939e-09 0 0 0 0 
0 0 0 0 0 0 0 0 0 
0 0 0 0 0 0 0 0 0 
0 0 0 0 0 0 0 0 0 
0 0 0 0 0 0 0 0 0 
0 0 0 6.99918e-10 1.95531e-09 4.17861e-09 6.4704e-07 5.32559e-09 0 
0 2.62889e-09 3.66712e-09 0 0 0 0 0 1.04725e-11 
0 0 0 0 0 0 0 0 1.44878e-09 
0 0 0 0 0 0 1.78909e-09 0 1.15483e-09 
0 0 1.08174e-09 0 0 0 0 0 0 
0 0 0 0 0 0 1.90765e-10 0 0 
0 6.68609e-07 9.69855e-10 0 0 0 0 0 0 
0 0 0 0 0 0 0 1.6281e-09 0 
0 0 0 0 0 0 0 0 0 
0 0 0 0 0 0 0 0 0 
0 0 0 0 0 0 0 0 0 
0 0 0 0 0 1.0321e-09 0 0 5.1899e-09 
2.01556e-09 0 1.37197e-09 0 1.60765e-09 0 0 0 0 
0 7.06561e-10 0 0 0 0 0 0 0 
1.42578e-09 0 0 0 0 0 0 3.08957e-09 0 
1.50655e-09 0 0 0 0 0 0 0 0 
0 0 7.27988e-10 0 0 1.78914e-09 1.70083e-10 0 0 
0 0 0 0 6.73255e-10 0 0 0 1.84299e-09 
0 0 0 0 0 0 1.2813e-09 4.95624e-09 0 
0 0 0 0 0 0 0 0 0 
0 0 0 0 0 0 0 0 0 
0 0 0 0 0 0 0 0 0 
0 0 0 0 0 0 0 0 0 
0 0 0 0 0 0 0 0 0 
0 0 0 0 0 0 0 0 0 
0 0 0 0 0 2.0547e-09 0 0 1.92075e-10 
0 5.35117e-10 0 0 0 0 0 0 0 
0 0 0 0 0 0 0 4.37933e-09 0 
0 0 0 0 0 1.56776e-09 0 0 0 
0 0 0 0 0 0 0 0 0 
7.18991e-07 0 1.8702e-09 1.57446e-09 0 0 0 0 0 
0 0 0 0 0 0 0 0 0 
0 0 0 0 0 0 0 0 0 
0 0 0 0 0 1.36896e-09 0 0 0 
0 0 0 0 0 0 0 1.64397e-09 0 
0 0 6.63349e-10 3.55057e-10 0 0 8.23209e-10 0 0 
2.77594e-10 0 0 0 1.67793e-09 0 0 8.76676e-07 8.73975e-07 
0 0 0 0 0 0 0 0 5.10457e-10 
0 0 0 0 0 0 0 0 6.46593e-07 
0 0 0 1.72064e-10 0 0 0 0 0 
0 6.54894e-07 0 0 0 0 0 0 2.90057e-09 
5.8724e-09 0 0 0 0 0 0 0 0 
0 0 0 0 0 0 0 0 0 
0 0 0 0 0 0 0 0 0 
7.37257e-10 0 0 0 0 0 0 1.0313e-09 0 
0 0 0 0 0 0 0 0 0 
1.11826e-09 0 0 0 0 7.17704e-10 0 0 0 
0 0 0 0 0 1.70204e-09 0 0 3.38087e-09 
0 0 2.23061e-09 1.70294e-10 0 0 6.45934e-07 1.86258e-09 0 
1.0477e-09 0 0 0 0 0 0 2.78942e-09 0 
0 0 0 0 0 0 4.62302e-09 0 0 
0 0 1.30465e-09 1.56785e-10 3.93775e-09 0 1.13671e-09 0 1.18732e-09 
1.6121e-09 0 7.25683e-07 0 0 0 0 0 0 
0 0 0 0 0 0 0 0 0 
0 0 0 0 0 0 0 0 0 
0 0 0 9.663e-10 1.06625e-09 1.69906e-10 0 0 0 
0 0 0 0 0 0 0 0 0 
0 0 3.06397e-09 0 7.90096e-10 0 9.85716e-10 1.18613e-10 0 
0 0 0 0 0 0 0 1.96078e-09 0 
4.37583e-09 0 0 0 2.42802e-09 0 0 2.63124e-09 8.31522e-10 
0 0 1.19954e-09 0 0 0 0 6.46157e-10 0 
0 0 1.60332e-09 9.17663e-10 0 0 8.90977e-09 6.54689e-07 4.67849e-09 
0 0 0 0 0 0 0 5.43063e-10 0 
0 0 3.79821e-09 0 0 4.62412e-10 0 0 0 
0 0 0 0 0 0 0 0 0 
0 0 0 0 0 0 0 0 0 
0 0 0 0 0 0 0 0 0 
7.18787e-07 0 0 0 0 0 0 0 0 
0 0 4.2608e-09 6.47059e-07 0 0 1.62576e-09 3.6803e-09 6.98959e-07 
0 2.47594e-09 1.55477e-09 0 0 0 0 1.24666e-09 0 
0 0 0 0 1.47345e-09 0 0 0 0 
0 0 0 0 0 0 0 0 5.81544e-10 
0 0 1.10697e-09 0 1.79401e-09 0 0 0 3.05925e-09 
0 0 2.85282e-09 0 0 0 0 1.23006e-09 0 
0 0 0 2.87679e-09 0 0 2.5065e-09 0 0 
0 0 0 0 0 0 0 0 0 
0 0 0 0 0 0 0 0 0 
0 0 0 6.59917e-07 0 0 0 0 7.75589e-07 
0 0 0 0 0 0 0 0 0 
0 0 0 0 0 0 0 0 0 
0 0 7.06264e-07 0 0 3.99835e-09 0 0 0 
0 9.61855e-10 2.85215e-09 0 0 6.91314e-10 0 0 0 
1.20926e-09 0 0 0 0 0 0 0 0 
0 1.09613e-09 0 0 0 0 0 0 0 
0 0 0 0 0 6.56262e-07 0 0 1.39286e-09 
0 5.26303e-10 0 0 5.93646e-10 9.11215e-10 0 1.48561e-09 0 
0 0 0 0 0 0 0 0 0 
0 0 0 0 0 0 0 0 0 
0 0 1.3867e-09 3.99279e-09 0 0 0 0 0 
0 0 3.54127e-09 2.40204e-09 0 0 1.05676e-09 0 0 
0 0 0 0 1.11965e-09 0 0 0 0 
1.56554e-09 0 0 0 0 0 2.17764e-09 6.0225e-09 3.56207e-09 
0 5.90187e-09 7.04291e-07 0 0 2.28144e-10 0 0 0 
0 0 0 0 3.73655e-09 2.87276e-09 4.80795e-09 1.64975e-09 0 
0 0 4.62631e-10 0 0 0 2.02387e-09 0 0 
0 0 2.60262e-09 0 0 0 0 0 0 
0 0 0 0 0 6.73353e-07 0 0 0 
2.50536e-10 0 0 0 0 0 0 0 0 
0 0 0 0 0 0 0 0 0 
0 0 0 0 0 0 1.37119e-09 0 7.1153e-07 
9.22339e-09 1.08976e-09 7.43671e-07 4.84779e-09 2.63253e-09 0 0 0 0 
0 8.16756e-10 0 0 0 0 0 0 0 
0 1.09971e-09 1.46054e-09 0 0 0 0 0 0 
0 0 0 7.26502e-09 0 0 0 0 0 
0 0 0 0 1.31377e-09 0 6.59242e-07 4.67098e-09 2.46525e-09 
0 0 0 0 0 0 6.50319e-07 2.28022e-09 1.58512e-09 
0 0 6.78179e-09 3.66608e-09 2.65544e-09 0 0 0 9.00415e-10 
0 0 0 0 0 0 0 0 0 
0 0 0 0 0 0 0 0 0 
0 0 0 0 0 0 0 0 0 
0 0 0 0 0 0 2.07538e-09 2.16779e-09 0 
0 0 0 0 0 6.61848e-10 1.32602e-09 0 2.84613e-09 
0 0 2.85566e-09 1.62295e-09 0 0 0 0 0 
0 0 3.20465e-10 0 0 0 0 0 0 
7.02501e-07 0 0 7.23935e-07 4.65064e-09 0 0 0 0 
0 0 0 0 0 0 0 2.58184e-09 0 
0 0 0 1.66847e-09 1.26997e-09 0 4.47286e-09 0 3.65337e-09 
0 0 4.06741e-09 6.50587e-07 0 0 1.15034e-09 0 9.91164e-10 
0 0 0 0 2.04956e-09 0 0 0 0 
0 0 4.52726e-10 0 0 0 0 0 0 
0 0 0 0 0 0 0 0 0 
0 0 0 0 0 0 0 0 4.84644e-10 
0 0 0 0 0 0 1.97566e-09 3.28463e-09 0 
0 8.72071e-07 0 0 0 0 0 0 0 
0 0 0 0 0 0 0 7.20996e-07 0 
5.66941e-09 0 0 0 0 0 0 0 0 
0 0 0 2.2541e-10 1.62204e-09 2.52498e-09 2.19955e-09 3.74456e-09 0 
0 0 0 0 0 0 0 0 0 
0 0 0 2.23423e-11 0 0 0 0 0 
0 0 0 0 0 0 0 6.76033e-07 4.49191e-09 
0 0 0 0 0 0 0 0 0 
0 0 0 0 0 0 0 0 0 
0 0 0 0 0 0 0 0 1.46508e-10 
0 1.25051e-09 1.12356e-09 0 1.66366e-09 0 0 2.86067e-10 0 
3.83293e-09 0 8.85129e-07 0 0 0 0 0 0 
0 0 0 0 0 2.85747e-09 0 5.82335e-09 0 
0 0 3.27739e-09 2.97171e-09 0 0 0 0 1.32877e-09 
0 0 0 0 0 0 0 5.20826e-07 6.70893e-10 
0 3.24197e-09 0 0 0 0 2.37194e-09 3.51644e-09 0 
0 0 1.14776e-09 1.85425e-09 0 0 0 0 0 
0 0 0 0 0 0 1.93492e-09 0 0 
0 0 0 0 0 0 0 0 0 
0 0 0 0 0 0 0 0 0 
0 0 0 0 0 0 0 0 0 
0 0 0 0 0 0 7.03392e-10 0 0 
0 0 0 0 0 5.5394e-09 6.84767e-07 4.53696e-09 0 
0 0 0 0 7.29786e-10 0 0 0 0 
0 0 0 0 0 0 0 0 0 
0 0 0 0 0 0 0 0 5.71144e-09 
0 0 0 0 7.48641e-07 0 8.05041e-07 0 0 
0 0 0 0 0 0 0 0 0 
0 0 0 0 0 3.64778e-09 6.55925e-07 0 0 
0 0 0 0 0 0 0 0 0 
0 0 0 0 0 0 0 0 0 
0 0 0 0 0 0 0 0 0 
0 0 0 0 0 0 0 0 0 
2.33338e-09 1.36631e-09 0 0 0 0 1.47464e-09 4.39256e-09 7.67194e-10 
0 1.7562e-09 0 0 0 0 0 0 0 
8.99437e-07 9.13674e-07 0 4.0652e-09 4.21968e-10 5.29613e-11 0 0 4.62177e-09 
0 0 0 0 0 0 0 0 0 
7.26591e-10 1.40369e-09 1.84979e-09 0 0 0 0 3.70951e-09 0 
1.92466e-09 0 0 0 0 9.4314e-10 8.20506e-10 0 0 
0 0 0 0 0 0 2.26809e-09 2.4924e-09 0 
2.69815e-09 0 0 0 0 0 0 0 0 
0 0 0 0 0 0 0 0 0 
0 0 0 0 0 0 0 0 0 
0 0 0 0 0 0 0 0 0 
0 0 0 2.37334e-09 0 0 0 0 0 
0 8.31537e-10 0 0 0 0 0 0 2.9653e-09 
0 0 0 0 4.39726e-09 0 0 0 3.51341e-09 
0 0 2.0561e-09 0 3.82796e-09 0 0 0 0 
0 2.69942e-09 0 0 0 0 0 0 3.3861e-09 
8.77634e-07 0 0 7.35741e-07 0 1.26786e-09 1.70501e-09 0 0 
0 0 0 0 0 0 0 0 0 
0 0 0 0 0 0 0 0 0 
0 0 0 0 0 0 0 0 0 
0 0 0 0 0 0 0 0 0 
0 0 0 0 0 0 0 0 0 
0 0 0 3.50579e-09 7.14443e-07 0 9.16605e-09 0 0 
4.14962e-09 3.463e-09 0 2.17321e-09 0 0 0 0 1.09388e-09 
0 0 0 0 0 0 0 0 0 
0 7.6219e-07 0 0 0 6.5879e-07 0 1.08408e-09 6.52508e-10 
0 7.44182e-10 0 0 1.63592e-09 0 0 0 0 
8.32065e-07 0 0 0 2.85504e-09 0 0 0 0 
0 0 0 0 0 0 0 0 0 
0 0 0 6.19315e-10 4.6475e-10 0 0 0 0 
0 0 0 0 0 0 0 0 0 
0 0 0 0 0 0 0 0 0 
0 0 0 0 0 0 0 0 0 
0 0 7.72747e-10 0 0 0 0 7.7918e-07 4.47549e-09 
0 0 0 6.542e-07 0 0 1.57205e-09 4.47317e-10 0 
0 1.95923e-09 0 0 7.12535e-07 0 0 0 0 
0 0 1.01011e-08 0 0 0 4.21208e-09 0 1.38485e-09 
0 0 0 0 0 0 5.93426e-10 0 0 
0 0 1.06619e-09 0 7.48184e-07 6.93409e-09 0 0 0 
0 0 0 0 0 0 0 0 0 
0 0 0 0 0 0 0 0 0 
0 0 0 0 0 0 0 0 0 
0 0 0 0 0 0 0 0 0 
0 0 0 0 0 0 0 0 0 
0 0 0 0 0 0 0 0 5.38953e-09 
3.47535e-09 0 0 3.94788e-09 4.53851e-09 0 1.56363e-09 0 0 
0 0 0 0 0 0 0 1.08372e-09 8.44029e-09 
0 8.81139e-07 0 8.21351e-07 2.48058e-09 4.02777e-09 0 0 3.72079e-09 
0 0 0 0 0 0 0 0 0 
0 0 2.26582e-09 0 0 0 0 0 0 
4.1199e-10 0 0 0 0 0 0 0 0 
0 0 0 0 0 0 0 0 0 
0 0 0 0 0 0 0 0 0 
0 0 0 0 0 0 0 0 0 
0 0 0 0 0 0 7.84495e-10 0 0 
0 0 0 0 0 0 1.72435e-09 2.35061e-09 1.01765e-08 
7.33291e-07 0 0 1.31757e-09 0 0 0 1.41666e-09 0 
0 0 0 0 0 0 0 8.9564e-09 0 
0 8.59856e-07 0 0 0 0 0 0 0 
0 0 0 0 0 6.67474e-07 0 3.46187e-09 0 
0 1.51085e-09 0 0 4.25061e-09 0 0 0 0 
0 0 0 0 0 0 0 0 0 
0 0 5.64217e-10 0 0 0 0 0 0 
0 0 0 0 0 0 0 0 0 
0 0 0 0 0 0 0 0 0 
0 0 0 0 0 0 0 6.44138e-07 0 
0 0 0 0 0 0 0 0 0 
0 0 1.9994e-09 0 2.10967e-09 0 2.433e-09 1.51341e-09 0 
0 0 0 7.48676e-10 0 0 0 0 0 
7.54849e-07 0 0 0 0 0 0 0 0 
0 0 0 1.27995e-09 0 0 5.01088e-09 0 3.01408e-09 
0 0 0 0 0 0 2.39537e-09 0 1.05299e-09 
1.11124e-09 0 0 0 0 0 0 0 0 
0 0 0 0 0 0 0 0 0 
4.60445e-10 0 0 0 0 0 0 0 0 
0 0 0 0 0 0 0 0 0 
0 0 0 0 0 0 2.39582e-09 2.07462e-09 0 
0 0 0 0 0 0 0 0 0 
0 3.18046e-09 0 0 0 0 0 0 0 
0 0 0 0 6.32361e-10 0 0 3.26106e-09 0 
0 0 0 0 0 0 6.62924e-10 1.03587e-09 0 
0 0 0 0 0 0 0 0 0 
4.81054e-09 0 0 8.46239e-07 0 8.42066e-07 8.88445e-09 0 6.48111e-10 
0 0 0 0 0 0 0 0 5.31525e-12 
0 0 0 0 3.52045e-09 0 0 0 0 
2.25416e-09 1.1058e-09 0 0 0 0 0 0 0 
0 0 0 0 0 0 0 0 0 
0 0 0 0 0 0 0 0 0 
0 0 0 0 1.48184e-09 3.06941e-09 0 0 0 
0 0 0 0 0 0 0 0 0 
0 0 0 0 2.47397e-10 0 0 0 0 
1.5544e-09 0 5.10826e-09 0 0 4.12796e-09 0 0 0 
0 0 0 0 6.7918e-10 0 0 0 0 
6.7603e-07 2.94331e-09 0 0 0 8.80366e-07 0 3.75234e-09 2.59714e-09 
0 0 2.07901e-10 0 0 0 0 0 0 
4.26852e-10 0 1.35579e-09 0 4.48668e-09 0 0 0 7.17184e-07 
2.1932e-09 0 0 0 0 0 0 0 0 
0 0 0 0 0 0 0 0 0 
0 0 0 0 0 0 1.11256e-10 0 0 
0 0 8.14429e-10 0 0 0 0 6.44207e-07 0 
0 1.3644e-09 0 0 0 0 0 0 0 
0 0 0 0 6.48414e-07 0 0 0 0 
0 0 0 0 9.07087e-07 8.93528e-07 0 0 0 
0 0 0 0 0 0 0 0 0 
2.53418e-09 8.7969e-09 0 0 0 1.37589e-09 0 0 1.78066e-09 
0 0 0 3.2736e-10 0 0 0 0 0 
1.57973e-09 0 0 0 0 1.23045e-08 7.00023e-07 0 0 
0 0 0 0 0 0 0 0 0 
0 0 0 0 0 0 0 0 0 
0 0 0 0 0 0 0 0 0 
0 0 0 0 0 0 0 1.43202e-09 1.81416e-09 
0 0 0 0 0 0 0 0 0 
2.04176e-10 0 0 0 2.96251e-09 0 0 2.4393e-09 0 
0 0 0 0 0 1.13727e-08 0 0 0 
0 0 0 0 0 0 0 0 0 
0 0 0 0 0 0 0 0 0 
0 0 0 0 0 0 0 0 0 
0 0 1.66857e-09 0 0 0 0 2.04995e-09 0 
5.04842e-09 0 7.11478e-07 0 0 0 0 0 0 
0 0 0 0 0 0 0 0 0 
0 0 0 0 0 0 0 0 0 
2.49546e-10 3.97533e-10 0 0 7.86604e-10 0 0 0 0 
1.28771e-09 0 0 0 0 0 0 0 0 
0 0 0 0 0 2.48771e-09 0 0 5.999e-10 
0 0 0 0 9.95537e-10 0 0 0 3.51637e-09 
2.66532e-10 0 0 0 0 0 0 0 0 
0 0 0 0 0 0 1.7965e-09 0 2.99502e-09 
2.52957e-09 0 0 0 0 0 0 0 0 
0 0 0 0 0 0 6.87696e-07 1.13576e-09 1.41762e-09 
0 0 3.47897e-09 2.45846e-09 0 0 0 0 0 
0 0 0 0 0 0 0 0 0 
0 0 0 0 0 0 0 0 0 
0 0 0 0 0 0 0 0 0 
0 0 0 4.83541e-10 0 0 0 0 0 
0 0 0 9.18955e-10 0 0 0 1.92919e-09 1.38963e-09 
0 0 0 0 1.99958e-09 8.63738e-09 6.77714e-07 0 0 
1.49764e-09 0 9.10439e-10 0 0 0 0 0 0 
0 0 0 0 0 0 8.95131e-10 0 0 
0 0 0 0 0 0 3.9992e-09 3.1126e-09 0 
0 0 0 6.54389e-07 0 1.89157e-09 7.70599e-10 0 0 
3.68044e-09 0 0 0 0 2.55915e-09 0 0 0 
0 0 0 0 0 0 0 0 0 
0 0 0 0 0 0 0 0 0 
0 0 0 1.48406e-09 0 2.03662e-09 0 0 0 
1.23447e-09 0 0 0 0 0 0 0 0 
0 0 0 0 0 0 6.48153e-07 0 0 
0 0 0 0 0 0 0 0 3.43242e-09 
0 0 1.07947e-09 0 0 0 0 0 0 
0 0 0 0 0 0 0 0 0 
0 0 0 0 0 2.57852e-09 6.15483e-09 6.49562e-07 0 
0 0 0 0 8.45557e-09 3.88882e-09 0 0 0 
0 1.54754e-09 0 0 0 0 0 1.07805e-09 1.56562e-09 
0 4.14717e-10 0 0 0 0 0 0 0 
0 0 0 0 0 0 0 0 0 
0 0 0 0 0 7.85119e-10 6.44467e-07 4.64256e-09 3.57487e-09 
0 0 0 0 0 0 0 0 0 
0 0 0 0 0 9.89373e-10 1.77839e-09 0 0 
0 0 0 0 0 0 8.53131e-10 1.25557e-09 0 
2.71417e-09 0 0 0 0 0 0 6.77722e-07 0 
0 8.31587e-10 0 0 0 0 0 0 0 
0 0 0 0 4.13151e-09 0 0 2.90173e-09 0 
0 0 0 7.84831e-10 0 0 0 0 0 
0 0 0 3.67849e-09 0 0 0 6.60427e-07 0 
0 0 5.12831e-10 0 0 0 0 0 0 
0 0 0 0 0 0 0 0 0 
0 0 0 0 1.00201e-09 0 0 0 2.39936e-09 
0 0 0 0 0 0 0 0 0 
0 6.36644e-10 0 0 0 0 0 0 5.90554e-10 
0 7.85026e-10 0 0 0 0 0 0 3.76593e-10 
0 0 0 0 3.81783e-10 0 2.51653e-09 0 0 
0 0 0 0 0 0 0 0 0 
0 0 0 0 0 6.48691e-07 4.3976e-09 4.4676e-09 0 
0 0 0 0 0 1.10431e-09 0 0 0 
3.36762e-09 0 6.57183e-07 3.16206e-09 0 1.89895e-09 0 1.8376e-09 0 
0 0 0 0 0 0 0 0 0 
0 0 0 0 0 0 0 0 0 
0 0 0 0 0 0 0 0 0 
1.57363e-09 5.52843e-10 0 0 0 0 0 0 0 
0 0 0 0 6.15488e-10 0 0 0 0 
0 0 1.13071e-09 0 0 0 0 7.14497e-10 0 
0 0 0 1.50075e-09 0 0 0 9.00635e-10 3.78414e-09 
0 0 0 9.85875e-07 9.13892e-07 0 0 4.22341e-10 0 
0 0 0 0 0 0 0 0 0 
9.97503e-10 8.54499e-10 0 0 0 0 7.23029e-10 0 0 
0 0 0 0 0 0 0 0 0 
0 0 0 0 0 0 0 0 0 
0 0 0 0 0 0 0 0 0 
0 0 0 0 0 0 0 0 0 
1.24252e-09 0 0 0 0 0 0 0 0 
0 0 0 0 0 0 1.18457e-09 1.22293e-09 0 
0 0 0 0 0 0 0 4.99928e-10 0 
0 0 0 0 0 0 0 0 0 
0 0 0 8.31271e-07 0 0 6.76741e-09 0 0 
4.65893e-10 4.54171e-10 0 0 0 0 0 7.66755e-10 9.19377e-10 
0 0 0 0 0 0 0 0 0 
2.95651e-09 8.47842e-10 1.82291e-09 0 0 0 1.07231e-09 0 0 
0 0 1.81363e-09 0 0 0 0 0 0 
0 0 0 0 0 0 0 0 0 
0 0 0 0 0 0 0 0 5.42754e-10 
0 0 0 0 0 0 0 0 0 
0 0 0 0 0 0 1.86856e-09 0 0 
0 0 5.49536e-10 0 0 0 4.19058e-09 6.47238e-07 0 
0 0 0 0 1.63198e-09 0 0 0 0 
6.70637e-07 0 3.46069e-09 0 0 0 0 0 0 
0 0 0 0 0 0 0 0 0 
0 0 0 0 0 0 0 0 4.62862e-09 
6.66189e-07 0 0 1.4706e-09 1.18983e-09 0 0 0 0 
1.75018e-09 6.56829e-07 0 0 0 0 0 0 0 
0 0 0 0 0 0 0 0 0 
0 0 0 0 0 0 0 0 1.81253e-10 
0 0 0 5.81793e-09 0 0 0 0 0 
0 0 0 0 0 5.87781e-09 6.78955e-07 0 0 
0 0 0 1.2007e-09 0 0 0 3.34641e-09 0 
2.70264e-09 0 0 0 0 0 0 1.82334e-09 0 
0 6.17345e-09 0 0 0 0 0 3.63351e-09 2.848e-10 
0 5.86049e-10 0 0 0 0 0 0 0 
0 0 0 0 0 0 0 0 0 
0 0 0 2.54859e-09 0 0 0 0 2.16725e-09 
0 1.12675e-08 0 0 0 0 0 0 0 
0 0 0 0 0 0 0 0 0 
0 0 0 0 0 0 0 0 0 
0 0 0 6.44091e-07 0 0 0 0 0 
0 0 0 0 6.79472e-07 0 0 0 5.57807e-09 
0 0 0 5.33064e-10 0 0 0 3.45963e-09 0 
1.99155e-09 2.0827e-09 0 0 0 0 1.10496e-09 1.2024e-09 6.5653e-07 
4.59962e-09 3.39404e-09 0 0 0 0 0 1.95993e-09 0 
0 0 0 0 0 0 7.93524e-10 0 0 
0 0 0 0 0 0 0 0 1.64355e-09 
0 0 0 0 0 2.06751e-09 0 0 5.36978e-09 
0 0 2.28006e-09 0 0 0 0 0 0 
0 0 0 0 0 0 0 0 0 
0 0 0 0 0 0 0 0 0 
0 0 0 0 2.14772e-09 0 0 0 1.2735e-09 
0 0 0 0 0 0 0 0 0 
0 1.93308e-09 0 1.62411e-09 0 0 3.7359e-09 0 0 
2.0982e-09 0 0 9.62289e-10 0 0 0 0 0 
1.1127e-09 2.43205e-09 1.23581e-09 0 0 0 0 0 0 
0 0 1.44561e-09 6.68009e-07 4.89534e-09 0 0 7.6685e-10 0 
0 0 0 0 0 0 0 0 0 
0 0 0 0 0 1.54656e-09 0 2.27028e-09 0 
6.52316e-07 0 0 0 2.19331e-09 1.03881e-09 0 0 0 
0 0 0 0 0 0 0 0 0 
0 0 0 0 0 0 0 0 0 
0 0 0 1.07035e-09 0 0 0 0 8.86808e-10 
0 0 0 2.69855e-09 0 0 0 0 1.87472e-09 
2.25912e-09 2.49128e-09 7.37917e-07 3.58831e-09 0 0 0 6.63267e-07 2.42832e-09 
0 0 0 6.78213e-10 0 2.71352e-09 0 0 0 
8.44529e-10 2.01611e-09 0 2.6933e-10 0 0 0 0 0 
0 0 0 0 0 0 0 0 8.16258e-10 
0 0 0 0 0 0 0 0 0 
0 0 0 9.83061e-07 1.08416e-06 0 0 0 0 
0 0 0 0 0 0 0 0 0 
0 0 0 0 0 0 0 0 0 
0 0 0 0 0 0 0 0 0 
0 0 0 0 0 0 0 0 0 
0 6.81053e-10 0 0 0 7.08017e-07 2.15263e-09 0 1.82119e-09 
0 0 4.0545e-09 1.04064e-09 0 0 0 0 2.23734e-09 
2.17861e-09 0 0 0 0 6.71915e-07 2.04627e-09 1.19608e-09 1.64337e-09 
0 0 0 0 0 0 0 0 0 
5.96013e-10 0 0 0 0 0 4.03814e-09 0 5.36186e-10 
0 0 0 0 0 0 0 0 0 
0 0 0 0 0 9.49425e-07 0 0 3.91315e-09 
1.70365e-09 0 0 0 0 6.91028e-10 0 0 7.66561e-07 
0 0 1.55532e-09 0 0 0 0 0 0 
0 0 0 0 0 0 0 0 0 
0 0 0 0 0 0 0 0 0 
0 0 0 0 0 0 1.42228e-09 0 1.15961e-09 
0 0 0 0 7.4372e-07 0 2.28461e-09 0 3.10209e-09 
0 0 0 4.06848e-09 0 0 0 0 0 
2.21271e-09 0 1.18207e-10 0 0 0 0 0 0 
0 0 0 0 0 0 0 6.80405e-07 0 
0 1.84288e-09 4.48244e-10 0 0 0 0 0 0 
0 0 0 1.16902e-09 0 0 0 0 0 
2.20311e-09 3.53219e-09 0 0 0 0 0 0 0 
0 7.70226e-07 0 0 0 0 0 0 0 
0 0 0 0 0 0 0 0 0 
0 0 0 0 0 0 0 0 0 
0 0 0 0 0 6.58242e-09 6.95863e-07 3.23861e-09 0 
4.18546e-09 0 0 1.94174e-09 0 0 0 0 1.66439e-09 
0 0 3.6847e-09 6.64545e-07 8.82063e-10 1.06446e-09 0 1.68251e-09 0 
0 0 1.26501e-09 0 1.73072e-09 0 1.00488e-09 0 0 
0 0 2.27869e-09 7.63199e-07 8.12978e-09 0 0 0 0 
1.91e-09 0 7.60897e-09 0 7.38631e-10 0 0 1.07454e-09 1.1372e-09 
0 0 1.24936e-09 0 0 0 0 4.37811e-09 1.21069e-09 
0 6.68347e-07 3.75778e-09 1.98891e-09 0 8.90994e-10 0 0 0 
0 0 0 3.17918e-09 0 0 0 0 0 
0 0 0 0 0 0 0 0 0 
0 0 0 0 0 0 0 0 0 
0 0 0 0 0 0 2.95764e-09 0 0 
0 0 0 3.49236e-10 0 0 7.46534e-10 0 2.53893e-09 
0 0 0 0 0 1.01883e-08 0 1.70343e-09 0 
6.7208e-07 0 2.40741e-09 0 0 3.06091e-09 0 0 0 
0 0 0 0 0 7.66141e-07 0 1.60008e-09 0 
0 0 0 4.45044e-09 0 0 2.63012e-09 1.37633e-09 0 
0 3.61403e-10 0 0 0 0 0 0 0 
0 2.66449e-09 0 1.48421e-09 0 0 0 0 0 
0 0 0 0 2.66111e-09 0 0 0 0 
0 0 0 0 0 0 0 0 0 
0 0 0 0 0 0 0 0 0 
0 0 0 0 0 0 0 0 0 
0 1.43758e-09 0 0 0 0 0 0 6.74616e-07 
0 0 1.98082e-09 2.06504e-09 1.09924e-09 0 0 4.00958e-09 0 
0 0 0 0 0 0 6.62017e-07 0 0 
0 0 0 1.50041e-09 0 0 0 0 0 
0 0 0 0 0 9.63897e-07 1.73177e-09 0 0 
0 0 3.00903e-09 0 6.55506e-07 0 0 0 0 
0 1.8154e-09 2.67187e-09 0 0 0 0 0 0 
0 0 4.82364e-09 0 0 0 0 8.35822e-10 0 
0 0 0 0 0 0 0 0 0 
0 0 0 0 0 0 0 0 0 
0 0 0 0 0 0 0 0 0 
0 0 0 0 0 0 0 0 0 
0 0 0 0 0 0 0 0 0 
0 7.04951e-10 0 1.36259e-09 0 0 0 0 0 
1.58269e-09 1.07792e-09 0 0 0 0 1.92835e-09 0 0 
0 0 0 0 0 0 0 0 0 
0 0 0 0 0 4.16562e-09 2.73141e-09 0 0 
0 0 0 0 0 0 9.0324e-10 0 0 
3.29755e-09 0 0 5.08144e-09 8.23394e-07 0 0 0 0 
0 0 0 0 0 0 0 0 0 
0 0 0 0 0 0 0 0 0 
0 0 0 0 0 0 0 0 0 
0 1.09822e-09 0 0 0 0 0 5.5062e-10 0 
0 0 0 2.38175e-09 0 0 0 0 0 
0 0 1.74849e-09 0 0 3.43467e-09 2.81533e-09 0 2.50155e-09 
0 1.7439e-09 1.41179e-09 0 0 0 0 0 0 
0 0 0 0 0 0 0 1.00379e-06 9.87002e-09 
0 0 0 0 2.17581e-09 0 0 0 2.61344e-09 
0 5.5502e-10 0 2.39196e-09 0 0 0 0 0 
0 0 3.78484e-09 0 9.8285e-07 0 0 0 0 
0 0 0 0 0 0 0 0 0 
0 0 0 0 0 0 0 0 0 
0 0 0 0 0 0 0 0 1.753e-09 
6.56581e-09 0 1.25624e-09 0 0 0 0 0 6.51378e-07 
4.30326e-09 0 0 1.74413e-09 0 0 2.11391e-09 0 6.10199e-10 
0 0 0 0 0 1.12742e-09 0 6.72059e-07 0 
0 0 0 0 0 0 0 0 0 
6.43307e-10 0 0 0 2.76473e-09 0 0 0 9.42428e-07 
0 0 0 0 7.48219e-07 0 0 2.61806e-11 0 
0 0 0 0 0 0 0 1.79294e-09 0 
0 6.77685e-07 1.25908e-09 0 0 9.19327e-07 0 0 0 
1.14151e-09 0 0 0 0 0 0 0 0 
0 0 0 0 0 0 0 0 0 
0 0 0 0 0 0 0 0 0 
0 0 0 6.15971e-10 3.18436e-10 0 1.34526e-09 0 0 
2.80887e-09 2.11933e-09 0 1.26922e-09 0 0 0 0 0 
0 0 0 0 0 0 0 0 8.94109e-10 
0 1.31612e-09 2.50859e-09 0 0 2.4776e-09 0 0 0 
1.33201e-09 0 0 2.11675e-09 0 1.06561e-09 1.51843e-09 0 0 
6.26463e-09 0 0 9.5e-07 0 1.47919e-09 0 3.79914e-09 0 
0 4.34421e-09 0 1.83993e-09 3.60965e-09 0 6.65638e-07 0 0 
1.70419e-09 0 4.00773e-09 1.39854e-09 3.72501e-09 0 0 0 0 
0 0 4.68636e-10 0 0 0 0 0 0 
0 0 0 0 0 0 0 0 0 
0 0 0 0 0 0 0 0 0 
0 5.36821e-09 6.77201e-07 5.68162e-09 0 7.0939e-10 0 0 0 
0 0 3.07414e-09 0 0 0 6.36433e-10 1.17881e-09 6.52201e-07 
0 1.3698e-09 0 0 0 0 0 0 0 
0 0 6.95324e-09 7.38487e-07 0 3.4832e-09 0 1.78828e-09 0 
0 1.7089e-09 0 1.65822e-09 0 0 0 0 0 
0 0 1.32279e-09 0 9.14254e-07 0 0 4.20327e-09 0 
6.97658e-07 0 0 6.86758e-07 4.75703e-09 0 0 4.6959e-09 3.06855e-09 
0 2.20605e-09 3.97033e-09 0 0 0 0 0 0 
0 5.45573e-10 0 0 0 0 0 0 0 
0 0 0 0 0 0 0 0 0 
0 0 0 0 0 0 3.11268e-10 0 0 
0 0 0 0 0 0 0 0 0 
0 0 0 0 0 0 0 0 0 
1.04147e-09 0 0 0 3.77422e-10 0 0 0 0 
1.13456e-09 0 0 0 0 0 7.67055e-07 0 5.40999e-10 
0 0 0 0 0 0 0 0 0 
0 0 0 0 0 0 0 6.63703e-10 0 
0 0 0 0 4.10034e-09 0 6.09815e-09 0 0 
0 0 0 0 0 5.11586e-09 4.69574e-09 0 0 
0 0 0 0 0 0 0 0 0 
0 0 0 0 0 0 0 0 0 
0 0 0 0 0 0 0 0 0 
0 0 0 0 0 3.19217e-09 0 6.62433e-10 0 
0 5.17346e-10 2.85342e-09 8.07042e-10 0 0 0 0 1.01291e-09 
7.68156e-11 0 0 0 0 0 0 0 0 
0 0 2.24485e-09 1.29414e-09 0 0 0 1.1123e-09 2.77942e-09 
3.05373e-09 0 0 0 6.80025e-07 0 0 0 0 
0 0 1.48188e-09 0 0 0 0 0 0 
0 0 7.48672e-10 0 0 0 0 6.25044e-09 0 
1.08463e-09 0 4.24055e-09 0 0 7.78999e-07 0 0 4.26691e-10 
0 0 0 0 0 0 0 0 0 
0 0 0 0 0 0 0 0 0 
0 0 0 0 0 0 0 0 0 
1.12333e-09 0 0 8.75922e-07 8.93437e-07 0 0 2.06211e-10 0 
0 0 0 6.19058e-09 0 0 0 0 0 
2.10332e-09 0 0 1.78939e-09 0 0 0 0 0 
0 0 0 0 0 0 0 8.78199e-07 1.31585e-09 
0 0 0 0 4.57069e-09 1.77129e-09 0 0 6.75034e-07 
0 1.2914e-09 0 0 6.60948e-07 0 0 0 0 
0 0 0 2.46469e-09 1.57763e-09 0 3.39032e-09 0 0 
0 0 6.84446e-07 0 0 0 0 7.67348e-07 0 
0 0 0 0 0 0 0 0 0 
0 0 0 0 0 0 0 0 0 
0 0 0 0 0 0 0 0 0 
0 1.48465e-09 0 0 0 0 5.65514e-09 0 0 
1.90479e-09 1.44853e-09 0 0 0 6.44774e-07 7.51526e-09 2.88538e-09 9.15084e-10 
0 7.95801e-10 0 1.76878e-09 6.51282e-07 2.63614e-09 1.79266e-09 0 0 
5.79039e-10 0 4.26438e-10 0 0 0 0 0 0 
0 0 0 0 4.94841e-09 0 0 0 9.05322e-10 
0 5.35388e-09 0 0 0 0 0 0 0 
1.72472e-09 0 6.59526e-07 0 0 0 2.29418e-09 2.76201e-10 0 
6.83953e-07 0 0 2.78694e-09 0 1.31431e-09 0 0 0 
0 0 0 0 0 0 0 0 0 
0 0 0 0 0 0 0 0 0 
0 0 0 0 0 0 0 0 0 
0 0 8.70909e-10 1.00543e-09 1.90391e-09 0 0 0 0 
0 0 1.36879e-09 5.1819e-10 0 0 0 0 1.76399e-09 
0 0 0 0 0 3.67699e-09 0 0 0 
0 8.4066e-10 0 0 0 0 0 9.92742e-07 1.15628e-06 
1.04969e-06 0 0 1.5427e-09 7.74686e-07 0 0 3.27259e-09 4.31354e-09 
0 0 3.25862e-09 0 0 0 0 0 0 
0 0 2.12665e-09 2.90438e-09 0 4.87654e-10 3.17998e-09 1.07785e-09 0 
1.42113e-09 0 0 0 0 8.15553e-10 0 1.50447e-09 7.10035e-10 
3.1735e-09 0 1.0269e-09 0 0 0 0 0 0 
0 0 0 0 0 0 0 0 0 
0 0 0 0 0 0 0 0 0 
0 0 0 0 0 5.4229e-09 0 0 7.02021e-09 
8.75039e-07 0 0 1.23155e-09 0 0 0 0 0 
0 0 0 0 0 1.10949e-09 1.70306e-09 0 0 
0 0 0 0 0 0 0 0 0 
1.70739e-09 0 0 0 0 0 5.48218e-09 7.35103e-07 0 
0 3.5942e-09 0 0 0 0 0 0 0 
0 4.23454e-10 0 0 0 0 0 0 6.62755e-07 
1.2796e-09 0 0 0 2.82853e-09 1.08398e-09 0 0 0 
0 0 1.89197e-11 0 0 0 0 0 0 
0 0 0 0 0 0 0 0 0 
0 0 0 0 0 0 0 0 0 
0 0 0 0 0 0 0 0 4.20776e-09 
0 8.65144e-07 0 0 0 0 0 1.16103e-09 0 
7.77681e-10 0 0 0 0 0 0 0 9.75522e-10 
0 0 0 0 0 0 0 0 0 
0 2.1198e-09 0 2.03917e-09 0 7.4118e-07 0 0 3.72739e-09 
0 0 0 0 3.5195e-10 0 0 0 0 
0 0 0 0 0 0 0 0 0 
0 0 0 0 0 2.17175e-09 0 0 0 
0 3.75689e-10 0 0 0 0 0 0 0 
0 0 0 0 0 0 0 0 0 
0 0 0 0 0 0 0 0 0 
0 0 0 0 1.14501e-09 0 1.14397e-09 0 0 
0 0 1.78589e-08 0 2.54476e-09 0 0 0 0 
0 0 0 0 0 0 0 0 0 
0 0 0 1.73541e-09 0 0 0 2.23824e-09 0 
4.44279e-09 7.10067e-07 3.01242e-09 0 0 0 6.95261e-09 3.52725e-09 5.41881e-09 
0 0 0 0 8.65238e-07 0 0 0 0 
0 0 0 0 0 0 0 2.78312e-10 0 
1.0897e-09 0 1.60974e-09 0 0 1.85563e-09 2.4551e-09 0 1.09706e-09 
1.20239e-09 4.38058e-10 0 0 0 0 0 0 0 
0 0 0 0 0 0 0 0 0 
0 0 0 0 0 0 0 0 0 
0 0 0 0 0 0 0 0 0 
0 0 1.64356e-09 0 0 0 5.64526e-10 0 0 
0 0 0 0 0 0 0 0 0 
0 0 0 0 0 2.97818e-09 6.46967e-07 5.39361e-09 1.31425e-09 
0 3.77315e-09 0 0 0 1.8815e-09 0 2.41673e-09 0 
0 0 0 0 2.4548e-09 8.6151e-07 0 3.59217e-09 1.57312e-09 
0 0 0 0 0 0 0 0 0 
0 0 0 0 3.9757e-10 6.58e-10 0 0 2.31757e-09 
0 0 0 0 0 0 0 0 0 
0 0 0 0 0 0 0 0 0 
0 0 0 0 0 0 0 0 0 
0 0 0 0 0 0 0 3.95911e-09 0 
0 1.55212e-09 0 9.72421e-10 0 0 0 0 1.31276e-09 
0 0 0 0 0 0 0 0 0 
0 0 0 0 0 0 0 3.11782e-09 0 
0 0 0 2.06422e-09 0 0 0 0 0 
0 0 0 0 0 0 0 0 0 
0 0 0 0 0 0 0 0 0 
0 0 0 0 0 0 1.53352e-09 0 6.52447e-07 
0 1.79123e-09 0 0 0 0 0 0 0 
0 0 0 0 0 0 0 0 0 
0 0 0 0 0 0 0 0 0 
0 0 0 0 0 0 0 0 6.44303e-07 
0 0 9.59618e-10 0 2.16751e-09 3.43357e-09 0 4.13463e-10 9.73997e-10 
1.0418e-09 0 0 0 0 0 0 0 0 
0 0 0 0 0 0 0 0 7.17364e-10 
0 0 0 0 7.54308e-10 0 0 6.5526e-10 0 
0 0 0 0 0 1.40178e-09 0 4.95279e-09 0 
1.99266e-09 0 0 0 4.17291e-09 0 7.64507e-10 7.33162e-10 0 
0 0 0 0 0 0 0 0 3.50861e-09 
1.88331e-09 0 0 0 0 1.53788e-09 0 0 0 
0 0 0 0 0 0 0 0 0 
0 0 0 0 0 0 0 0 0 
0 0 0 0 0 0 0 0 2.13817e-09 
1.44135e-09 0 3.53936e-10 0 0 0 9.33112e-10 0 0 
0 0 0 0 0 0 0 0 0 
0 0 0 0 1.24695e-09 0 0 0 8.87527e-10 
0 0 0 0 0 8.27036e-10 0 0 0 
0 0 0 0 0 0 0 0 0 
0 0 2.35084e-09 0 1.22793e-09 6.82788e-07 0 2.98466e-09 0 
0 0 0 0 0 0 0 0 0 
0 0 0 0 0 0 0 1.30223e-09 0 
0 0 0 0 0 0 0 0 0 
0 0 0 0 0 0 0 0 0 
0 0 0 0 0 0 0 0 0 
0 2.16672e-09 1.66032e-09 1.22759e-09 0 0 0 3.21262e-09 6.5949e-07 
4.44613e-09 0 0 0 0 0 0 0 0 
4.29762e-10 3.6612e-10 0 0 1.6532e-10 1.02262e-09 0 0 0 
0 0 0 0 0 0 0 3.63692e-10 0 
0 0 0 0 0 0 0 0 1.48986e-09 
0 0 2.68557e-09 7.48562e-10 0 0 0 0 3.25533e-09 
0 0 0 0 0 0 0 0 0 
1.28808e-09 0 0 0 0 1.93932e-09 0 0 0 
0 0 0 0 0 0 0 0 0 
0 0 0 0 0 0 0 0 0 
0 0 0 0 0 0 0 0 0 
0 7.31279e-10 0 0 9.3579e-10 0 0 0 0 
0 0 4.41637e-09 0 6.73146e-07 0 0 1.57381e-09 0 
0 0 0 0 0 5.26502e-11 0 9.21032e-10 0 
0 0 0 0 8.8086e-10 0 0 2.61429e-09 0 
0 0 0 0 0 0 0 0 0 
0 6.29736e-10 0 0 0 6.79221e-07 6.49556e-09 0 0 
3.96654e-09 0 0 0 0 0 0 0 0 
0 6.87607e-10 2.07217e-09 0 6.52489e-07 4.1489e-09 0 0 2.68878e-09 
0 1.66891e-09 0 0 0 0 0 0 0 
0 0 0 0 0 0 0 0 0 
0 0 0 0 0 0 0 0 0 
0 0 0 0 0 0 0 0 0 
0 0 0 0 0 0 0 0 0 
0 0 0 0 3.77135e-09 0 0 2.74708e-09 0 
0 0 2.71416e-09 0 0 0 2.61564e-09 6.45449e-07 0 
4.53586e-09 0 0 0 0 0 0 0 0 
6.47106e-07 4.39713e-09 0 1.23025e-09 0 0 0 0 0 
1.47495e-08 6.62966e-07 0 2.15358e-09 0 0 0 0 0 
0 0 1.14988e-09 0 0 0 0 0 0 
0 0 8.56498e-07 0 0 0 0 0 0 
0 0 0 0 0 0 0 0 0 
0 0 0 0 0 0 0 0 0 
0 0 0 0 0 0 0 0 0 
0 0 0 0 0 0 4.73533e-09 0 0 
1.34661e-09 2.21943e-10 0 0 8.23668e-10 0 6.70925e-07 0 3.68324e-09 
0 0 0 0 0 0 2.27025e-09 5.2949e-10 0 
0 0 4.59009e-10 0 0 0 0 0 0 
0 0 1.50204e-09 0 0 0 3.60425e-09 0 0 
0 0 0 2.63951e-09 0 0 0 0 0 
0 0 0 0 0 0 0 0 7.71283e-10 
0 2.81861e-09 0 8.56761e-07 5.09661e-09 0 0 0 0 
0 0 0 0 0 0 0 0 0 
0 0 0 0 0 0 0 0 0 
0 0 0 0 0 0 0 0 1.20672e-09 
0 1.88784e-09 0 0 0 7.69845e-09 6.95492e-07 2.81264e-09 2.61475e-09 
9.21085e-10 2.71814e-09 0 0 0 0 0 0 0 
0 0 0 8.14036e-07 0 1.1142e-09 0 1.87943e-09 0 
0 0 1.81116e-10 0 0 0 0 0 0 
2.29498e-09 0 0 0 0 0 0 0 0 
6.32361e-10 0 0 0 0 0 1.95166e-10 0 0 
0 0 0 0 0 0 1.83903e-09 0 0 
0 0 0 0 0 0 1.36612e-09 0 4.26781e-10 
0 0 0 0 0 0 0 0 0 
0 0 0 0 0 0 0 0 0 
0 0 0 0 0 0 3.99563e-09 1.1185e-09 4.64639e-09 
0 1.15866e-09 0 2.60075e-09 8.11375e-07 0 0 0 3.03981e-09 
5.95566e-10 0 0 0 0 0 0 0 0 
0 0 7.3567e-07 0 2.20831e-09 7.87381e-07 9.0287e-09 0 0 
1.3493e-09 1.87412e-09 0 0 0 0 0 0 0 
0 0 0 3.96522e-10 0 0 0 0 0 
0 0 0 0 0 0 0 0 0 