# vtk DataFile Version 5.1
vtk output
ASCII
DATASET STRUCTURED_POINTS
DIMENSIONS 100 100 1
SPACING 1 1 1
ORIGIN 0 0 0
POINT_DATA 10000
FIELD FieldData 6
feature_1 1 10000 float
0 0 0 0 0 0 0 0 0 
0 0 0 0 0 0 0 0 0 
0 0 0 0 0 0 0 0 0 
0 0 0 0 0 0 0 0 0 
0 0 0 0 0 0 0 0 0 
0 0 0 0 0 0 0 0 0 
0 0 0 0 0 0 0 0 0 
0 0 0 0 0 0 0 0 0 
0 0 0 0 0 0 0 0 0 
0 0 0 0 0 0 0 0 0 
0 0 0 0 0 0 0 0 0 
0 0 0 0 0 0 0 0 0 
0 0 0 0 0 0 0 0 0 
0 0 0 0 0 0 0 0 0 
0 0 0 0 0 0 0 0 0 
0 0 0 0 0 0 0 0 0 
0 0 0 0 0 0 0 0 0 
0 0 0 0 0 0 0 0 0 
0 0 0 0 0 0 0 0 0 
0 0 0 0 0 0 0 0 0 
0 0 0 0 0 0 0 0 0 
0 0 0 0 0 0 0 0 0 
0 0 0 0 0 0 0 0 0 
0 0 0 0 0 0 0 0 0 
0 0 0 0 0 0 0 0 0 
0 0 0 0 0 0 0 0 0 
0 0 0 0 0 0 0 0 0 
0 0 0 0 0 0 0 0 0 
0 0 0 0 0 0 0 0 0 
0 0 0 0 0 0 0 0 0 
0 0 0 0 0 0 0 0 0 
0 0 0 0 0 0 0 0 0 
0 0 0 0 0 0 0 0 0 
0 0 0 0 0 0 0 0 0 
0 0 0 0 0 0 0 0 0 
0 0 0 0 0 0 0 0 0 
0 0 0 0 0 0 0 0 0 
0 0 0 0 0 0 0 0 0 
0 0 0 0 0 0 0 0 0 
0 0 0 0 0 0 0 0 0 
0 0 0 0 0 0 0 0 0 
0 0 0 0 0 0 0 0 0 
0 0 0 0 0 0 0 0 0 
0 0 0 0 0 0 0 0 0 
0 0 0 0 0 0 0 0 0 
0 0 0 0 0 0 0 0 0 
0 0 0 0 0 0 0 0 0 
0 0 0 0 0 0 0 0 0 
0 0 0 0 0 0 0 0 0 
0 0 0 0 0 0 0 0 0 
0 0 0 0 0 0 0 0 0 
0 0 0 0 0 0 0 0 0 
0 0 0 0 0 0 0 0 0 
0 0 0 0 0 0 0 0 0 
0 0 0 0 0 0 0 0 0 
0 0 0 0 0 0 0 0 0 
0 0 0 0 0 0 0 0 0 
0 0 0 0 0 0 0 0 0 
0 0 0 0 0 0 0 0 0 
0 0 0 0 0 0 0 0 0 
0 0 0 0 0 0 0 0 0 
0 0 0 0 0 0 0 0 0 
0 0 0 0 0 0 0 0 0 
0 0 0 0 0 0 0 0 0 
0 0 0 0 0 0 0 0 0 
0 0 0 0 0 0 0 0 0 
0 0 0 0 0 0 0 0 0 
0 0 0 0 0 0 0 0 0 
0 0 0 0 0 0 0 0 0 
0 0 0 0 0 0 0 0 0 
0 0 0 0 0 0 0 0 0 
0 0 0 0 0 0 0 0 0 
0 0 0 0 0 0 0 0 0 
0 0 0 0 0 0 0 0 0 
0 0 0 0 0 0 0 0 0 
0 0 0 0 0 0 0 0 0 
0 0 0 0 0 0 0 0 0 
0 0 0 0 0 0 0 0 0 
0 0 0 0 0 0 0 0 0 
0 0 0 0 0 0 0 0 0 
0 0 0 0 0 0 0 0 0 
0 0 0 0 0 0 0 0 0 
0 0 0 0 0 0 0 0 0 
0 0 0 0 0 0 0 0 0 
0 0 0 0 0 0 0 0 0 
0 0 0 0 0 0 0 0 0 
0 0 0 0 0 0 0 0 0 
0 0 0 0 0 0 0 0 0 
0 0 0 0 0 0 0 0 0 
0 0 0 0 0 0 0 0 0 
0 0 0 0 0 0 0 0 0 
0 0 0 0 0 0 0 0 0 
0 0 0 0 0 0 0 0 0 
0 0 0 0 0 0 0 0 0 
0 0 0 0 0 0 0 0 0 
0 0 0 0 0 0 0 0 0 
0 0 0 0 0 0 0 0 0 
0 0 0 0 0 0 0 0 0 
0 0 0 0 0 0 0 0 0 
0 0 0 0 0 0 0 0 0 
0 0 0 0 0 0 0 0 0 
0 0 0 0 0 0 0 0 0 
0 0 0 0 0 0 0 0 0 
0 0 0 0 0 0 0 0 0 
0 0 0 0 0 0 0 0 0 
0 0 0 0 0 0 0 0 0 
0 0 0 0 0 0 0 0 0 
0 0 0 0 0 0 0 0 0 
0 0 0 0 0 0 0 0 0 
0 0 0 0 0 0 0 0 0 
0 0 0 0 0 0 0 0 0 
0 0 0 0 0 0 0 0 0 
0 0 0 0 0 0 0 0 0 
0 0 0 0 0 0 0 0 0 
0 0 0 0 0 0 0 0 0 
0 0 0 0 0 0 0 0 0 
0 1.5875e-09 0 0 0 2.77188e-11 0 0 0 
0 0 0 0 0 0 0 2.38713e-09 4.66379e-10 
0 0 0 0 0 0 0 0 0 
0 0 0 0 0 0 0 0 0 
0 0 0 0 0 0 0 0 0 
0 0 0 0 0 0 0 0 0 
0 0 0 0 0 0 0 0 0 
0 0 0 0 0 0 0 0 0 
0 0 0 0 0 0 0 0 0 
0 0 0 0 0 0 0 0 0 
0 0 0 0 0 0 0 0 1.21306e-09 
0 0 0 0 0 0 0 0 0 
0 0 0 0 0 0 0 0 0 
0 0 0 0 0 0 0 0 0 
0 0 0 0 0 0 0 0 0 
0 0 0 0 0 0 0 0 0 
0 0 0 0 0 0 0 0 0 
0 0 0 0 0 0 0 0 0 
0 0 0 0 0 0 0 0 0 
0 0 0 0 0 0 0 0 0 
0 0 0 0 0 0 0 0 0 
0 0 0 0 0 0 0 0 0 
0 0 0 7.9258e-07 6.00276e-09 2.50149e-09 0 1.1602e-09 0 
0 0 0 0 0 0 1.94415e-09 1.12643e-09 6.44964e-07 
1.63061e-09 0 0 0 0 0 0 0 0 
0 0 0 0 0 0 0 0 0 
0 0 0 0 0 0 0 0 0 
0 0 0 0 0 0 0 0 0 
0 0 0 0 0 0 0 0 0 
0 0 0 0 0 0 0 0 0 
0 0 0 0 0 0 0 0 0 
0 0 0 0 4.78521e-10 0 0 0 0 
0 0 0 1.395e-09 0 0 0 0 0 
3.09697e-09 0 0 8.33334e-07 0 6.50532e-09 0 0 0 
7.97737e-10 0 0 0 0 0 0 0 0 
0 0 1.66403e-09 1.3127e-09 8.36748e-10 0 0 0 0 
0 0 0 0 0 0 0 0 0 
0 1.7134e-09 0 0 0 0 0 0 0 
0 0 0 0 0 0 0 0 0 
0 0 0 0 0 0 0 0 0 
0 0 0 0 0 0 0 0 0 
0 0 0 0 0 0 0 0 0 
0 0 0 0 4.4262e-09 6.4685e-07 0 0 0 
0 0 0 1.63607e-09 0 7.62157e-09 0 0 1.31534e-09 
0 0 0 0 0 0 0 0 1.54901e-09 
0 0 0 0 0 0 0 0 0 
0 0 0 0 0 0 0 0 0 
0 0 0 0 0 0 1.1382e-09 0 0 
6.46325e-07 1.40492e-09 0 8.72856e-10 0 0 0 0 0 
0 0 0 4.09089e-13 0 0 0 0 0 
0 0 0 0 0 0 0 0 0 
0 0 0 0 0 0 0 0 0 
0 0 0 0 0 0 0 0 0 
0 0 0 0 0 0 0 0 0 
0 0 0 0 9.76147e-10 3.87798e-09 0 4.37037e-09 2.69159e-09 
0 0 0 0 0 0 7.98524e-07 0 0 
9.51534e-10 0 0 0 0 0 0 0 0 
0 0 1.34565e-09 0 0 0 0 0 0 
0 0 0 0 9.73253e-10 0 0 0 0 
0 4.66148e-11 0 0 4.61029e-10 0 0 0 0 
0 0 0 0 0 0 0 0 0 
0 0 0 0 0 0 0 0 0 
0 0 0 0 0 0 0 0 0 
0 0 0 0 0 0 0 0 0 
0 0 0 0 0 0 1.96745e-09 0 0 
6.76884e-10 0 0 4.55148e-10 0 0 2.33814e-09 0 0 
0 0 8.11043e-10 0 0 7.41808e-07 1.20464e-08 0 0 
0 0 6.89593e-07 0 8.18807e-10 9.48652e-10 0 0 0 
0 0 0 0 1.46221e-09 0 1.86381e-09 0 1.31137e-09 
0 2.18638e-09 0 0 0 0 0 0 0 
0 0 0 4.2725e-10 0 0 0 0 0 
0 0 0 0 0 0 0 0 0 
0 0 0 0 0 0 0 0 0 
0 0 0 0 0 0 0 0 0 
0 0 0 0 0 0 0 0 0 
0 0 0 0 0 0 1.15543e-09 5.05419e-09 0 
2.0061e-09 0 0 0 0 0 0 0 1.9966e-09 
1.54579e-09 0 0 0 1.2567e-09 1.68617e-09 0 0 2.21777e-09 
0 0 0 0 0 0 6.58631e-10 0 0 
0 0 0 0 0 0 0 7.19043e-07 0 
7.19207e-07 8.01698e-09 0 0 0 0 0 0 6.67436e-07 
0 0 0 0 0 0 0 0 0 
0 0 0 0 0 0 0 0 0 
0 0 0 0 0 0 0 0 0 
0 0 0 0 0 0 0 0 0 
0 0 0 0 0 0 0 0 0 
0 0 0 0 0 3.56663e-09 0 1.44003e-09 0 
0 0 0 0 0 0 0 0 1.84782e-09 
0 0 0 0 0 0 0 0 0 
0 0 0 0 0 0 1.77801e-09 0 0 
0 0 0 0 0 0 0 0 0 
0 0 2.24394e-09 0 0 0 0 9.85108e-10 0 
0 0 2.02271e-09 2.06387e-09 1.37608e-09 0 0 0 0 
0 0 0 0 0 0 0 0 0 
0 0 0 0 0 0 0 0 0 
0 0 0 0 0 0 0 0 0 
0 0 0 0 0 0 0 0 0 
0 0 0 0 0 0 0 1.68504e-09 1.55789e-09 
3.88286e-09 6.49466e-07 0 0 0 0 0 0 0 
0 0 0 0 6.49941e-07 0 0 0 0 
0 8.98411e-07 9.15235e-07 0 1.9203e-09 7.20248e-07 0 0 0 
0 0 0 0 0 0 0 1.97167e-09 0 
0 1.52529e-09 0 0 0 1.28359e-09 0 1.79722e-09 0 
1.82491e-09 0 8.23715e-10 1.38889e-09 1.12102e-09 0 0 0 0 
0 0 0 0 0 0 0 0 0 
0 0 0 0 0 0 0 0 0 
0 0 0 0 0 0 0 0 0 
0 0 0 0 0 0 0 0 0 
0 0 0 7.14849e-10 1.96211e-09 4.16715e-09 6.4695e-07 5.33127e-09 0 
0 2.68793e-09 3.65057e-09 0 0 0 0 0 0 
0 0 0 0 0 0 0 0 1.49447e-09 
0 0 0 0 0 0 1.70659e-09 0 1.08671e-09 
0 0 1.16367e-09 0 0 0 0 0 0 
0 0 0 0 0 0 1.58791e-10 0 0 
0 6.68606e-07 9.80229e-10 0 0 0 0 0 0 
0 0 0 0 0 0 0 1.59428e-09 0 
0 0 0 0 0 0 0 0 0 
0 0 0 0 0 0 0 0 0 
0 0 0 0 0 0 0 0 0 
0 0 0 0 0 1.08001e-09 0 0 5.11397e-09 
2.07949e-09 0 1.37316e-09 0 1.59474e-09 0 0 0 0 
0 7.65892e-10 0 0 0 0 0 0 0 
1.40084e-09 0 0 0 0 0 0 3.0443e-09 0 
1.48056e-09 0 0 0 0 0 0 0 0 
0 0 7.23022e-10 0 0 1.8088e-09 1.33083e-10 0 0 
0 0 0 0 6.98377e-10 0 0 0 1.86595e-09 
0 0 0 0 0 0 1.26608e-09 4.98071e-09 0 
0 0 0 0 0 0 0 0 0 
0 0 0 0 0 0 0 0 0 
0 0 0 0 0 0 0 0 0 
0 0 0 0 0 0 0 0 0 
0 0 0 0 0 0 0 0 0 
0 0 0 0 0 0 0 0 0 
0 0 0 0 0 1.95149e-09 0 0 2.82826e-10 
0 5.14508e-10 0 0 0 0 0 0 0 
0 0 0 0 0 0 0 4.45652e-09 0 
0 0 0 0 0 1.5777e-09 0 0 0 
0 0 0 0 0 0 0 0 0 
7.18983e-07 0 1.84229e-09 1.60539e-09 0 0 0 0 0 
0 0 0 0 0 0 0 0 0 
0 0 0 0 0 0 0 0 0 
0 0 0 0 0 1.40532e-09 0 0 0 
0 0 0 0 0 0 0 1.72224e-09 0 
0 0 6.96985e-10 3.60445e-10 0 0 8.60787e-10 0 0 
2.38422e-10 0 0 0 1.73183e-09 0 0 8.766e-07 8.73967e-07 
0 0 0 0 0 0 0 0 5.68424e-10 
0 0 0 0 0 0 0 0 6.46666e-07 
0 0 0 2.7078e-10 0 0 0 0 0 
0 6.54957e-07 0 0 0 0 0 0 2.95809e-09 
5.79302e-09 0 0 0 0 0 0 0 0 
0 0 0 0 0 0 0 0 0 
0 0 0 0 0 0 0 0 0 
6.62264e-10 0 0 0 0 0 0 1.04854e-09 0 
0 0 0 0 0 0 0 0 0 
1.10771e-09 0 0 0 0 6.72837e-10 0 0 0 
0 0 0 0 0 1.64558e-09 0 0 3.39326e-09 
0 0 2.25806e-09 2.18896e-10 0 0 6.45868e-07 1.89479e-09 0 
1.00894e-09 0 0 0 0 0 0 2.81471e-09 0 
0 0 0 0 0 0 4.53997e-09 0 0 
0 0 1.29393e-09 1.29714e-10 3.97156e-09 0 1.10446e-09 0 1.2547e-09 
1.5681e-09 0 7.25776e-07 0 0 0 0 0 0 
0 0 0 0 0 0 0 0 0 
0 0 0 0 0 0 0 0 0 
0 0 0 9.39437e-10 1.10046e-09 1.51166e-10 0 0 0 
0 0 0 0 0 0 0 0 0 
0 0 3.04809e-09 0 7.4752e-10 0 1.00778e-09 1.75757e-10 0 
0 0 0 0 0 0 0 1.94152e-09 0 
4.28594e-09 0 0 0 2.36894e-09 0 0 2.66344e-09 7.85368e-10 
0 0 1.27109e-09 0 0 0 0 5.90374e-10 0 
0 0 1.57917e-09 8.91623e-10 0 0 8.96492e-09 6.54688e-07 4.78463e-09 
0 0 0 0 0 0 0 5.33333e-10 0 
0 0 3.8299e-09 0 0 4.62427e-10 0 0 0 
0 0 0 0 0 0 0 0 0 
0 0 0 0 0 0 0 0 0 
0 0 0 0 0 0 0 0 0 
7.18742e-07 0 0 0 0 0 0 0 0 
0 0 4.26866e-09 6.47056e-07 0 0 1.67113e-09 3.63747e-09 6.98891e-07 
0 2.47514e-09 1.54363e-09 0 0 0 0 1.16697e-09 0 
0 0 0 0 1.47578e-09 0 0 0 0 
0 0 0 0 0 0 0 0 5.48278e-10 
0 0 1.20256e-09 0 1.81852e-09 0 0 0 3.00119e-09 
0 0 2.92978e-09 0 0 0 0 1.27934e-09 0 
0 0 0 2.81849e-09 0 0 2.46363e-09 0 0 
0 0 0 0 0 0 0 0 0 
0 0 0 0 0 0 0 0 0 
0 0 0 6.59859e-07 0 0 0 0 7.75566e-07 
0 0 0 0 0 0 0 0 0 
0 0 0 0 0 0 0 0 0 
0 0 7.06212e-07 0 0 3.96125e-09 0 0 0 
0 9.60449e-10 2.83637e-09 3.80472e-11 0 6.97734e-10 0 0 0 
1.27406e-09 0 0 0 0 0 0 0 0 
0 1.10043e-09 0 0 0 0 0 0 0 
0 0 0 0 0 6.56234e-07 0 0 1.42868e-09 
0 5.15021e-10 0 0 6.0785e-10 9.56345e-10 0 1.51896e-09 0 
0 0 0 0 0 0 0 0 0 
0 0 0 0 0 0 0 0 0 
0 0 1.3573e-09 4.04012e-09 0 0 0 0 0 
0 0 3.5337e-09 2.34255e-09 0 0 1.0476e-09 0 0 
0 0 0 0 1.07485e-09 0 0 0 0 
1.56774e-09 0 0 0 0 0 2.19083e-09 6.06428e-09 3.57511e-09 
0 5.94083e-09 7.04304e-07 0 0 2.19973e-10 0 0 0 
0 0 0 0 3.76966e-09 2.86054e-09 4.73282e-09 1.71135e-09 0 
0 0 5.24955e-10 0 0 0 2.06852e-09 0 0 
0 0 2.5842e-09 0 0 0 0 0 0 
0 0 0 0 0 6.73334e-07 0 0 0 
2.44989e-10 0 0 0 0 0 0 0 0 
0 0 0 0 0 0 0 0 0 
0 0 0 0 0 0 1.40472e-09 0 7.11551e-07 
9.18301e-09 1.0775e-09 7.43743e-07 4.80435e-09 2.5735e-09 0 0 0 0 
0 8.23269e-10 0 0 0 0 0 0 0 
0 1.09729e-09 1.487e-09 0 0 0 0 0 0 
0 0 0 7.3191e-09 0 0 0 0 0 
0 0 0 0 1.39221e-09 0 6.59274e-07 4.63384e-09 2.52239e-09 
0 0 0 0 0 0 6.50273e-07 2.23976e-09 1.6201e-09 
0 0 6.79583e-09 3.64769e-09 2.65079e-09 0 0 0 8.47379e-10 
0 0 0 0 0 0 0 0 0 
0 0 0 0 0 0 0 0 0 
0 0 0 0 0 0 0 0 0 
0 0 0 0 0 0 2.05965e-09 2.14094e-09 0 
0 0 0 0 0 6.13013e-10 1.29515e-09 0 2.86448e-09 
0 0 2.82237e-09 1.63039e-09 0 0 0 0 0 
0 0 3.60486e-10 0 0 0 0 0 0 
7.02415e-07 0 0 7.23913e-07 4.66773e-09 0 0 0 0 
0 0 0 0 0 0 0 2.62932e-09 0 
0 0 0 1.72064e-09 1.3264e-09 0 4.41945e-09 0 3.65949e-09 
0 0 4.16037e-09 6.50595e-07 0 0 1.11059e-09 0 1.06197e-09 
0 0 0 0 2.07149e-09 0 0 0 0 
0 0 4.34845e-10 0 0 0 0 0 0 
0 0 0 0 0 0 0 0 0 
0 0 0 0 0 0 0 0 5.81349e-10 
0 0 0 0 0 0 2.03376e-09 3.26311e-09 0 
0 8.72009e-07 0 0 0 0 0 0 0 
0 0 0 0 0 0 0 7.21014e-07 0 
5.69834e-09 0 0 0 0 0 0 0 0 
0 0 0 2.36819e-10 1.57823e-09 2.49984e-09 2.2552e-09 3.72245e-09 0 
0 0 0 0 0 0 0 0 0 
0 0 0 8.5924e-12 0 0 0 0 0 
0 0 0 0 0 0 0 6.76002e-07 4.43934e-09 
0 0 0 0 0 0 0 0 0 
0 0 0 0 0 0 0 0 0 
0 0 0 0 0 0 0 0 1.5877e-10 
0 1.19367e-09 1.07814e-09 0 1.62209e-09 0 0 2.36517e-10 0 
3.86414e-09 0 8.85218e-07 0 0 0 0 0 0 
0 0 0 0 0 2.80069e-09 0 5.78057e-09 0 
0 0 3.33165e-09 3.00203e-09 0 0 0 0 1.38388e-09 
0 0 0 0 0 0 0 5.2084e-07 6.62253e-10 
0 3.2458e-09 0 0 0 0 2.4144e-09 3.60046e-09 0 
0 0 1.23209e-09 1.80612e-09 0 0 0 0 0 
0 0 0 0 0 0 1.95945e-09 0 0 
0 0 0 0 0 0 0 0 0 
0 0 0 0 0 0 0 0 0 
0 0 0 0 0 0 0 0 0 
0 0 0 0 0 0 7.98569e-10 0 0 
0 0 0 0 0 5.55847e-09 6.84832e-07 4.51687e-09 0 
0 0 0 0 7.43483e-10 0 0 0 0 
0 0 0 0 0 0 0 0 0 
0 0 0 0 0 0 0 0 5.65491e-09 
0 0 0 0 7.48653e-07 0 8.04995e-07 0 0 
0 0 0 0 0 0 0 0 0 
0 0 0 0 0 3.62325e-09 6.55879e-07 0 0 
0 0 0 0 0 0 0 0 0 
0 0 0 0 0 0 0 0 0 
0 0 0 0 0 0 0 0 0 
0 0 0 0 0 0 0 0 0 
2.36276e-09 1.34966e-09 0 0 0 0 1.50101e-09 4.3294e-09 7.35054e-10 
0 1.77206e-09 0 0 0 0 0 0 0 
8.99481e-07 9.13572e-07 0 4.09371e-09 4.00857e-10 5.11241e-11 0 0 4.65371e-09 
0 0 0 0 0 0 0 0 0 
7.24468e-10 1.35905e-09 1.93611e-09 0 0 0 0 3.70629e-09 0 
1.89748e-09 0 0 0 0 1.00399e-09 7.83277e-10 0 0 
0 0 0 0 0 0 2.2423e-09 2.43763e-09 0 
2.65118e-09 0 0 0 0 0 0 0 0 
0 0 0 0 0 0 0 0 0 
0 0 0 0 0 0 0 0 0 
0 0 0 0 0 0 0 0 0 
0 0 0 2.37253e-09 0 0 0 0 0 
0 8.54814e-10 0 0 0 0 0 0 3.03183e-09 
0 0 0 0 4.32111e-09 0 0 0 3.45082e-09 
0 0 2.02863e-09 0 3.80328e-09 0 0 0 0 
0 2.6385e-09 0 0 0 0 0 0 3.38716e-09 
8.77661e-07 0 0 7.35774e-07 0 1.3425e-09 1.66374e-09 0 0 
0 0 0 0 0 0 0 0 0 
0 0 0 0 0 0 0 0 0 
0 0 0 0 0 0 0 0 0 
0 0 0 0 0 0 0 0 0 
0 0 0 0 0 0 0 0 0 
0 0 0 3.60992e-09 7.14425e-07 0 9.18379e-09 0 0 
4.14135e-09 3.40924e-09 0 2.21431e-09 0 0 0 0 1.08819e-09 
0 0 0 0 0 0 0 0 0 
0 7.62183e-07 0 0 0 6.58849e-07 0 1.05833e-09 6.63307e-10 
0 8.04892e-10 0 0 1.61169e-09 0 0 0 0 
8.32079e-07 0 0 0 2.82902e-09 0 0 0 0 
0 0 0 0 0 0 0 0 0 
0 0 0 6.22148e-10 4.83906e-10 0 0 0 0 
0 0 0 0 0 0 0 0 0 
0 0 0 0 0 0 0 0 0 
0 0 0 0 0 0 0 0 0 
0 0 7.29625e-10 0 0 0 0 7.79171e-07 4.49122e-09 
0 0 0 6.54202e-07 0 0 1.48429e-09 5.04833e-10 0 
0 1.95335e-09 0 0 7.12534e-07 0 0 0 0 
0 0 1.00724e-08 0 0 0 4.21685e-09 0 1.38738e-09 
0 0 0 0 0 0 6.49648e-10 0 0 
0 0 1.08408e-09 0 7.48165e-07 6.89457e-09 0 0 0 
0 0 0 0 0 0 0 0 0 
0 0 0 0 0 0 0 0 0 
0 0 0 0 0 0 0 0 0 
0 0 0 0 0 0 0 0 0 
0 0 0 0 0 0 0 0 0 
0 0 0 0 0 0 0 0 5.29485e-09 
3.49353e-09 0 0 3.96815e-09 4.58491e-09 0 1.56718e-09 0 0 
0 0 0 0 0 0 0 1.09527e-09 8.43933e-09 
0 8.81094e-07 0 8.21363e-07 2.4623e-09 4.02911e-09 0 0 3.705e-09 
0 0 0 0 0 0 0 0 0 
0 0 2.33818e-09 0 0 0 0 0 0 
4.19949e-10 0 0 0 0 0 0 0 0 
0 0 0 0 0 0 0 0 0 
0 0 0 0 0 0 0 0 0 
0 0 0 0 0 0 0 0 0 
0 0 0 0 0 0 8.51152e-10 0 0 
0 0 0 0 0 0 1.73535e-09 2.37842e-09 1.0218e-08 
7.3326e-07 0 0 1.35864e-09 0 0 0 1.42243e-09 0 
0 0 0 0 0 0 0 8.90579e-09 0 
0 8.59877e-07 0 0 0 0 0 0 0 
0 0 0 0 0 6.67469e-07 0 3.448e-09 0 
0 1.57282e-09 0 0 4.22739e-09 0 0 0 0 
0 0 0 0 0 0 0 0 0 
0 0 5.76251e-10 0 0 0 0 0 0 
0 0 0 0 0 0 0 0 0 
0 0 0 0 0 0 0 0 0 
0 0 0 0 0 0 0 6.44189e-07 0 
0 0 0 0 0 0 0 0 0 
0 0 2.05077e-09 0 2.07984e-09 0 2.42889e-09 1.49347e-09 0 
0 0 0 7.06731e-10 0 0 0 0 0 
7.5489e-07 0 0 0 0 0 0 0 0 
0 0 0 1.29618e-09 0 0 4.99917e-09 0 3.07177e-09 
0 0 0 0 0 0 2.43996e-09 0 1.06963e-09 
1.12301e-09 0 0 0 0 0 0 0 0 
0 0 0 0 0 0 0 0 0 
5.3417e-10 0 0 0 0 0 0 0 0 
0 0 0 0 0 0 0 0 0 
0 0 0 0 0 0 2.41817e-09 1.99434e-09 0 
0 0 0 0 0 0 0 0 0 
0 3.10906e-09 0 0 0 0 0 0 0 
0 0 0 0 6.64788e-10 0 0 3.26898e-09 0 
0 0 0 0 0 0 6.11777e-10 9.6566e-10 0 
0 0 0 0 0 0 0 0 0 
4.83534e-09 0 0 8.46236e-07 0 8.42079e-07 8.88003e-09 0 6.79105e-10 
0 0 0 0 0 0 0 0 0 
0 0 0 0 3.39901e-09 0 0 0 0 
2.28008e-09 1.10997e-09 0 0 0 0 0 0 0 
0 0 0 0 0 0 0 0 0 
0 0 0 0 0 0 0 0 0 
0 0 0 0 1.43984e-09 3.0781e-09 0 0 0 
0 0 0 0 0 0 0 0 0 
0 0 0 0 2.54215e-10 0 0 0 0 
1.52374e-09 0 5.14537e-09 0 0 4.09379e-09 0 0 0 
0 0 0 0 6.06231e-10 0 0 0 0 
6.75952e-07 2.95824e-09 0 0 0 8.80352e-07 0 3.74791e-09 2.59846e-09 
0 0 1.97759e-10 0 0 0 0 0 0 
3.71828e-10 0 1.3574e-09 0 4.53554e-09 0 0 0 7.17172e-07 
2.22944e-09 0 0 0 0 0 0 0 0 
0 0 0 0 0 0 0 0 0 
0 0 0 0 0 0 9.65143e-11 0 0 
0 0 8.02247e-10 0 0 0 0 6.44286e-07 0 
0 1.25404e-09 0 0 0 0 0 0 0 
0 0 0 0 6.48405e-07 0 0 0 0 
0 0 0 0 9.07116e-07 8.93464e-07 0 0 0 
0 0 0 0 0 0 0 0 0 
2.58604e-09 8.83045e-09 0 0 0 1.36242e-09 0 0 1.66716e-09 
0 0 0 3.10955e-10 0 0 0 0 0 
1.58814e-09 0 0 0 0 1.2231e-08 6.99921e-07 0 0 
0 0 0 0 0 0 0 0 0 
0 0 0 0 0 0 0 0 0 
0 0 0 0 0 0 0 0 0 
0 0 0 0 0 0 0 1.45295e-09 1.84826e-09 
0 0 0 0 0 0 0 0 0 
2.08786e-10 0 0 0 2.89317e-09 0 0 2.41944e-09 0 
0 0 0 0 0 1.13369e-08 0 0 0 
0 0 0 0 0 0 0 0 0 
0 0 0 0 0 0 0 0 0 
0 0 0 0 0 0 0 0 0 
0 0 1.68592e-09 0 0 0 0 2.02735e-09 0 
5.13894e-09 0 7.11484e-07 0 0 0 0 0 0 
0 0 0 0 0 0 0 0 0 
0 0 0 0 0 0 0 0 0 
2.20936e-10 4.9164e-10 0 0 7.15302e-10 0 0 0 0 
1.33316e-09 0 0 0 0 0 0 0 0 
0 0 0 0 0 2.53982e-09 0 0 6.67148e-10 
0 0 0 0 9.82172e-10 0 0 0 3.58845e-09 
2.23367e-10 0 0 0 0 0 0 0 0 
0 0 0 0 0 0 1.80887e-09 0 3.02208e-09 
2.60652e-09 0 0 0 0 0 0 0 0 
0 0 0 0 0 0 6.87735e-07 1.12813e-09 1.50112e-09 
0 0 3.51641e-09 2.38257e-09 0 0 0 0 0 
0 0 0 0 0 0 0 0 0 
0 0 0 0 0 0 0 0 0 
0 0 0 0 0 0 0 0 0 
0 0 0 5.18522e-10 0 0 0 0 0 
0 0 0 9.49151e-10 0 0 0 1.90579e-09 1.46414e-09 
0 0 0 0 1.97655e-09 8.6361e-09 6.77665e-07 0 0 
1.55865e-09 0 8.3478e-10 0 0 0 0 0 0 
0 0 0 0 0 0 9.44048e-10 0 0 
0 0 0 0 0 0 4.05377e-09 3.14481e-09 0 
0 0 0 6.54411e-07 0 1.89541e-09 6.97084e-10 0 0 
3.60974e-09 0 0 0 0 2.54845e-09 0 0 0 
0 0 0 0 0 0 0 0 0 
0 0 0 0 0 0 0 0 0 
0 0 0 1.50789e-09 0 2.05341e-09 0 0 0 
1.22278e-09 0 0 0 0 0 0 0 0 
0 0 0 0 0 0 6.48132e-07 0 0 
0 0 0 0 0 0 0 0 3.4027e-09 
0 0 1.023e-09 0 0 0 0 0 0 
0 0 0 0 0 0 0 0 0 
0 0 0 0 0 2.61758e-09 6.11943e-09 6.49631e-07 0 
0 0 0 0 8.47849e-09 3.90679e-09 0 0 0 
0 1.52126e-09 0 0 0 0 0 1.05637e-09 1.52376e-09 
0 3.66576e-10 0 0 0 0 0 0 0 
0 0 0 0 0 0 0 0 0 
0 0 0 0 0 8.7716e-10 6.44484e-07 4.61608e-09 3.60419e-09 
0 0 0 0 0 0 0 0 0 
0 0 0 0 0 1.01054e-09 1.78361e-09 0 0 
0 0 0 0 0 0 9.36422e-10 1.24952e-09 0 
2.71807e-09 0 0 0 0 0 0 6.77643e-07 0 
0 8.53796e-10 0 0 0 0 0 0 0 
0 0 0 0 4.16314e-09 0 0 2.9399e-09 0 
0 0 0 8.06944e-10 0 0 0 0 0 
0 0 0 3.6525e-09 0 0 0 6.60474e-07 0 
0 0 5.20963e-10 0 0 0 0 0 0 
0 0 0 0 0 0 0 0 0 
0 0 0 0 1.06136e-09 0 0 0 2.40208e-09 
0 0 0 0 0 0 0 0 0 
0 5.59744e-10 0 0 0 0 0 0 6.52682e-10 
0 8.40739e-10 0 0 0 0 0 0 4.01359e-10 
0 0 0 0 3.88485e-10 0 2.49024e-09 0 0 
0 0 0 0 0 0 0 0 0 
0 0 0 0 0 6.4863e-07 4.40073e-09 4.39133e-09 0 
0 0 0 0 0 1.07476e-09 0 0 0 
3.36556e-09 0 6.57203e-07 3.14991e-09 0 1.94357e-09 0 1.79068e-09 0 
0 0 0 0 0 0 0 0 0 
0 0 0 0 0 0 0 0 0 
0 0 0 0 0 0 0 0 0 
1.49689e-09 6.08593e-10 0 0 0 0 0 0 0 
0 0 0 0 7.17054e-10 0 0 0 0 
0 0 1.17882e-09 0 0 0 0 7.28762e-10 0 
0 0 0 1.45506e-09 0 0 0 8.98483e-10 3.84491e-09 
0 0 0 9.85848e-07 9.13916e-07 0 0 4.3852e-10 0 
0 0 0 0 0 0 0 0 0 
9.38211e-10 8.90249e-10 0 0 0 0 7.31251e-10 0 0 
0 0 0 0 0 0 0 0 0 
0 0 0 0 0 0 0 0 0 
0 0 0 0 0 0 0 0 0 
0 0 0 0 0 0 0 0 0 
1.22311e-09 0 0 0 0 0 0 0 0 
0 0 0 0 0 0 1.12454e-09 1.1855e-09 0 
0 0 0 0 0 0 0 5.34986e-10 0 
0 0 0 0 0 0 0 0 0 
0 0 0 8.31323e-07 0 0 6.79436e-09 0 0 
4.3734e-10 4.29278e-10 0 0 0 0 0 7.65462e-10 9.09717e-10 
0 0 0 0 0 0 0 0 0 
3.03911e-09 8.63402e-10 1.78404e-09 0 0 0 1.03603e-09 0 0 
0 0 1.86358e-09 0 0 0 0 0 0 
0 0 0 0 0 0 0 0 0 
0 0 0 0 0 0 0 0 5.67136e-10 
0 0 0 0 0 0 0 0 0 
0 0 0 0 0 0 1.93539e-09 0 0 
0 0 5.57151e-10 0 0 0 4.2855e-09 6.4724e-07 0 
0 0 0 0 1.67537e-09 0 0 0 0 
6.70679e-07 0 3.44916e-09 0 0 0 0 0 0 
0 0 0 0 0 0 0 0 0 
0 0 0 0 0 0 0 0 4.61867e-09 
6.66127e-07 0 0 1.45217e-09 1.1721e-09 0 0 0 0 
1.66347e-09 6.56908e-07 0 0 0 0 0 0 0 
0 0 0 0 0 0 0 0 0 
0 0 0 0 0 0 0 0 1.90081e-10 
0 0 0 5.85414e-09 0 0 0 0 0 
0 0 0 0 0 5.8452e-09 6.78899e-07 0 0 
0 0 0 1.23059e-09 0 0 0 3.44044e-09 0 
2.69017e-09 0 0 0 0 0 0 1.74813e-09 0 
0 6.18222e-09 0 0 0 0 0 3.54883e-09 3.12878e-10 
0 6.27738e-10 0 0 0 0 0 0 0 
0 0 0 0 0 0 0 0 0 
0 0 0 2.58681e-09 0 0 0 0 2.18326e-09 
0 1.12969e-08 0 0 0 0 0 0 0 
0 0 0 0 0 0 0 0 0 
0 0 0 0 0 0 0 0 0 
0 0 0 6.44102e-07 0 0 0 0 0 
0 0 0 0 6.79473e-07 0 0 0 5.52858e-09 
0 0 0 5.96504e-10 0 0 0 3.54603e-09 0 
1.95097e-09 2.08804e-09 0 0 0 0 1.13581e-09 1.18116e-09 6.56588e-07 
4.65548e-09 3.32169e-09 0 0 0 0 0 1.9979e-09 0 
0 0 0 0 0 0 7.88635e-10 0 0 
0 0 0 0 0 0 0 0 1.62301e-09 
0 0 0 0 0 2.1484e-09 0 0 5.2807e-09 
0 0 2.35965e-09 0 0 0 0 0 0 
0 0 0 0 0 0 0 0 0 
0 0 0 0 0 0 0 0 0 
0 0 0 0 2.18676e-09 0 0 0 1.23487e-09 
0 0 0 0 0 0 0 0 0 
0 1.9723e-09 0 1.57945e-09 0 0 3.71283e-09 0 0 
2.17166e-09 0 0 9.33269e-10 0 0 0 0 0 
1.06495e-09 2.43562e-09 1.2804e-09 0 0 0 0 0 0 
0 0 1.50812e-09 6.68043e-07 4.89525e-09 0 0 8.08536e-10 0 
0 0 0 0 0 0 0 0 0 
0 0 0 0 0 1.52582e-09 0 2.26164e-09 0 
6.52301e-07 0 0 0 2.17416e-09 1.13014e-09 0 0 0 
0 0 0 0 0 0 0 0 0 
0 0 0 0 0 0 0 0 0 
0 0 0 1.05304e-09 0 0 0 0 9.31447e-10 
0 0 0 2.71835e-09 0 0 0 0 1.92082e-09 
2.29945e-09 2.40712e-09 7.37937e-07 3.50883e-09 0 0 0 6.63232e-07 2.35983e-09 
0 0 0 6.43302e-10 0 2.69945e-09 0 0 0 
8.90464e-10 2.03233e-09 0 2.02178e-10 0 0 0 0 0 
0 0 0 0 0 0 0 0 8.14689e-10 
0 0 0 0 0 0 0 0 0 
0 0 0 9.83129e-07 1.08416e-06 0 0 0 0 
0 0 0 0 0 0 0 0 0 
0 0 0 0 0 0 0 0 0 
0 0 0 0 0 0 0 0 0 
0 0 0 0 0 0 0 0 0 
0 6.76972e-10 0 0 0 7.08048e-07 2.20474e-09 0 1.76836e-09 
0 0 4.06566e-09 1.00555e-09 0 0 0 0 2.19396e-09 
2.17411e-09 0 0 0 0 6.71944e-07 2.03169e-09 1.25847e-09 1.54497e-09 
0 0 0 0 0 0 0 0 0 
6.06906e-10 0 0 0 0 0 3.93842e-09 0 5.90094e-10 
0 0 0 0 0 0 0 0 0 
0 0 0 0 0 9.49407e-07 0 0 3.89736e-09 
1.77726e-09 0 0 0 0 7.56965e-10 0 0 7.66569e-07 
0 0 1.50679e-09 0 0 0 0 0 0 
0 0 0 0 0 0 0 0 0 
0 0 0 0 0 0 0 0 0 
0 0 0 0 0 0 1.42582e-09 0 1.10234e-09 
0 0 0 0 7.4368e-07 0 2.25681e-09 0 3.11218e-09 
0 0 0 4.0095e-09 0 0 0 0 0 
2.15829e-09 0 9.90114e-11 0 0 0 0 0 0 
0 0 0 0 0 0 0 6.80416e-07 0 
0 1.84746e-09 3.91324e-10 0 0 0 0 0 0 
0 0 0 1.22989e-09 0 0 0 0 0 
2.2416e-09 3.59017e-09 0 0 0 0 0 0 0 
0 7.70168e-07 0 0 0 0 0 0 0 
0 0 0 0 0 0 0 0 0 
0 0 0 0 0 0 0 0 0 
0 0 0 0 0 6.48146e-09 6.95919e-07 3.28973e-09 0 
4.11282e-09 0 0 2.01747e-09 0 0 0 0 1.68955e-09 
0 0 3.71408e-09 6.64537e-07 9.08014e-10 1.02617e-09 0 1.64279e-09 0 
0 0 1.2064e-09 0 1.72255e-09 0 1.01925e-09 0 0 
0 0 2.21962e-09 7.63298e-07 8.17889e-09 0 0 0 0 
1.86989e-09 0 7.58036e-09 0 7.25612e-10 0 0 1.0508e-09 1.16151e-09 
0 0 1.19062e-09 0 0 0 0 4.29999e-09 1.17105e-09 
0 6.6837e-07 3.74573e-09 1.98462e-09 0 9.15378e-10 0 0 0 
0 0 0 3.20879e-09 0 0 0 0 0 
0 0 0 0 0 0 0 0 0 
0 0 0 0 0 0 0 0 0 
0 0 0 0 0 0 2.86181e-09 0 0 
0 0 0 3.51974e-10 0 0 7.71906e-10 0 2.56912e-09 
0 0 0 0 0 1.01681e-08 0 1.69918e-09 0 
6.72038e-07 0 2.43036e-09 0 0 2.97675e-09 0 0 0 
0 0 0 0 0 7.66191e-07 0 1.57736e-09 0 
0 0 0 4.41282e-09 0 0 2.61105e-09 1.34136e-09 0 
0 3.09454e-10 0 0 0 0 0 0 0 
0 2.68285e-09 0 1.4943e-09 0 0 0 0 0 
0 0 0 0 2.64268e-09 0 0 0 0 
0 0 0 0 0 0 0 0 0 
0 0 0 0 0 0 0 0 0 
0 0 0 0 0 0 0 0 0 
0 1.3945e-09 0 0 0 0 0 0 6.74642e-07 
0 0 2.015e-09 2.12366e-09 1.04398e-09 0 0 3.92532e-09 0 
0 0 0 0 0 0 6.6197e-07 0 0 
0 0 0 1.51207e-09 0 0 0 0 0 
0 0 0 0 0 9.63961e-07 1.67226e-09 0 0 
0 0 3.00639e-09 0 6.55625e-07 0 0 0 0 
0 1.81156e-09 2.71105e-09 0 0 0 0 0 0 
0 0 4.79694e-09 0 0 0 0 7.99279e-10 0 
0 0 0 0 0 0 0 0 0 
0 0 0 0 0 0 0 0 0 
0 0 0 0 0 0 0 0 0 
0 0 0 0 0 0 0 0 0 
0 0 0 0 0 0 0 0 0 
0 7.80954e-10 0 1.34251e-09 0 0 0 0 0 
1.57825e-09 1.15149e-09 0 0 0 0 1.9786e-09 0 0 
0 0 0 0 0 0 0 0 0 
0 0 0 0 0 4.14181e-09 2.71904e-09 0 0 
0 0 0 0 0 0 9.32798e-10 0 0 
3.30744e-09 0 0 5.02626e-09 8.23381e-07 0 0 0 0 
0 0 0 0 0 0 0 0 0 
0 0 0 0 0 0 0 0 0 
0 0 0 0 0 0 0 0 0 
0 1.14435e-09 0 0 0 0 0 5.07929e-10 0 
0 0 0 2.36475e-09 0 0 0 0 0 
0 0 1.8067e-09 0 0 3.49166e-09 2.77974e-09 0 2.42621e-09 
0 1.64902e-09 1.39887e-09 0 0 0 0 0 0 
0 0 0 0 0 0 0 1.00379e-06 9.83064e-09 
0 0 0 0 2.10912e-09 0 0 0 2.62088e-09 
0 5.53628e-10 0 2.34882e-09 0 0 0 0 0 
0 0 3.6908e-09 0 9.82883e-07 0 0 0 0 
0 0 0 0 0 0 0 0 0 
0 0 0 0 0 0 0 0 0 
0 0 0 0 0 0 0 0 1.77513e-09 
6.53704e-09 0 1.30105e-09 0 0 0 0 0 6.5138e-07 
4.26428e-09 0 0 1.72559e-09 0 0 2.15151e-09 0 6.03664e-10 
0 0 0 0 0 1.10178e-09 0 6.72088e-07 0 
0 0 0 0 0 0 0 0 0 
6.03655e-10 0 0 0 2.77849e-09 0 0 0 9.42391e-07 
0 0 0 0 7.48195e-07 0 0 1.2039e-10 0 
0 0 0 0 0 0 0 1.81205e-09 0 
0 6.77711e-07 1.30084e-09 0 0 9.19362e-07 0 0 0 
1.13398e-09 0 0 0 0 0 0 0 0 
0 0 0 0 0 0 0 0 0 
0 0 0 0 0 0 0 0 0 
0 0 0 6.42228e-10 2.95718e-10 0 1.3101e-09 0 0 
2.7777e-09 2.15208e-09 0 1.26628e-09 0 0 0 0 0 
0 0 0 0 0 0 0 0 9.08345e-10 
0 1.32127e-09 2.51174e-09 0 0 2.47209e-09 0 0 0 
1.27057e-09 0 0 2.10155e-09 0 1.00294e-09 1.57628e-09 0 0 
6.29073e-09 0 0 9.50026e-07 0 1.41262e-09 0 3.8475e-09 0 
0 4.26643e-09 0 1.85119e-09 3.60004e-09 0 6.65678e-07 0 0 
1.79897e-09 0 3.97438e-09 1.38633e-09 3.69198e-09 0 0 0 0 
0 0 4.47207e-10 0 0 0 0 0 0 
0 0 0 0 0 0 0 0 0 
0 0 0 0 0 0 0 0 0 
0 5.42455e-09 6.77265e-07 5.69313e-09 0 6.78206e-10 0 0 0 
0 0 3.08104e-09 0 0 0 6.63022e-10 1.16794e-09 6.52104e-07 
0 1.40376e-09 0 0 0 0 0 0 0 
0 0 6.9451e-09 7.38547e-07 0 3.41439e-09 0 1.81312e-09 0 
0 1.74842e-09 0 1.58482e-09 0 0 0 0 0 
0 0 1.25975e-09 0 9.14266e-07 0 0 4.19734e-09 0 
6.97683e-07 0 0 6.86709e-07 4.69505e-09 0 0 4.73992e-09 3.03706e-09 
0 2.21275e-09 3.95779e-09 0 0 0 0 0 0 
0 5.44124e-10 0 0 0 0 0 0 0 
0 0 0 0 0 0 0 0 0 
0 0 0 0 0 0 2.91562e-10 0 0 
0 0 0 0 0 0 0 0 0 
0 0 0 0 0 0 0 0 0 
1.10113e-09 0 0 0 3.44601e-10 0 0 0 0 
1.11981e-09 0 0 0 0 0 7.6698e-07 0 5.44175e-10 
0 0 0 0 0 0 0 0 0 
0 0 0 0 0 0 0 6.73552e-10 0 
0 0 0 0 4.12835e-09 0 6.0512e-09 0 0 
0 0 0 0 0 5.15331e-09 4.64422e-09 0 0 
0 0 0 0 0 0 0 0 0 
0 0 0 0 0 0 0 0 0 
0 0 0 0 0 0 0 0 0 
0 0 0 0 0 3.20219e-09 0 6.83858e-10 0 
0 5.80426e-10 2.87581e-09 7.23212e-10 0 0 0 0 9.82031e-10 
9.39212e-11 0 0 0 0 0 0 0 0 
0 0 2.21859e-09 1.30329e-09 0 0 0 1.22872e-09 2.73729e-09 
2.99379e-09 0 0 0 6.80107e-07 0 0 0 0 
0 0 1.50716e-09 0 0 0 0 0 0 
0 0 7.42668e-10 0 0 0 0 6.22607e-09 0 
1.10663e-09 0 4.22364e-09 0 0 7.78946e-07 0 0 4.1294e-10 
0 0 0 0 0 0 0 0 0 
0 0 0 0 0 0 0 0 0 
0 0 0 0 0 0 0 0 0 
1.11968e-09 0 0 8.75969e-07 8.9344e-07 0 0 2.11757e-10 0 
0 0 0 6.15182e-09 0 0 0 0 0 
2.14732e-09 0 0 1.70717e-09 0 0 0 0 0 
0 0 0 0 0 0 0 8.78226e-07 1.26871e-09 
0 0 0 0 4.54081e-09 1.74008e-09 0 0 6.7504e-07 
0 1.2963e-09 0 0 6.60915e-07 0 0 0 0 
0 0 0 2.46321e-09 1.60634e-09 0 3.34713e-09 0 0 
0 0 6.84418e-07 0 0 0 0 7.67245e-07 0 
0 0 0 0 0 0 0 0 0 
0 0 0 0 0 0 0 0 0 
0 0 0 0 0 0 0 0 0 
0 1.53534e-09 0 0 0 0 5.69417e-09 0 0 
1.95249e-09 1.43818e-09 0 0 0 6.44778e-07 7.59081e-09 2.90573e-09 8.54899e-10 
0 7.89028e-10 0 1.75868e-09 6.51307e-07 2.57549e-09 1.71072e-09 0 0 
5.41361e-10 0 3.68901e-10 0 0 0 0 0 0 
0 0 0 0 4.8578e-09 0 0 0 8.88217e-10 
0 5.43821e-09 0 0 0 0 0 0 0 
1.71867e-09 0 6.59423e-07 0 0 0 2.28173e-09 2.51319e-10 0 
6.83988e-07 0 0 2.84164e-09 0 1.41251e-09 0 0 0 
0 0 0 0 0 0 0 0 0 
0 0 0 0 0 0 0 0 0 
0 0 0 0 0 0 0 0 0 
0 0 9.23864e-10 1.05447e-09 1.93226e-09 0 0 0 0 
0 0 1.35894e-09 5.66195e-10 0 0 0 0 1.7447e-09 
0 0 0 0 0 3.61689e-09 0 0 0 
0 8.1983e-10 0 0 0 0 0 9.92702e-07 1.15627e-06 
1.04964e-06 0 0 1.56591e-09 7.74659e-07 0 0 3.2662e-09 4.28956e-09 
0 0 3.19109e-09 0 0 0 0 0 0 
0 0 2.09471e-09 2.8754e-09 0 4.44329e-10 3.19324e-09 1.06855e-09 0 
1.46858e-09 0 0 0 0 8.06394e-10 0 1.4974e-09 7.14623e-10 
3.22259e-09 0 9.87437e-10 0 0 0 0 0 0 
0 0 0 0 0 0 0 0 0 
0 0 0 0 0 0 0 0 0 
0 0 0 0 0 5.4748e-09 0 0 6.96003e-09 
8.7499e-07 0 0 1.29469e-09 0 0 0 0 0 
0 0 0 0 0 1.10541e-09 1.79881e-09 0 0 
0 0 0 0 0 0 0 0 0 
1.7746e-09 0 0 0 0 0 5.45792e-09 7.35089e-07 0 
0 3.62917e-09 0 0 0 0 0 0 0 
0 3.66895e-10 0 0 0 0 0 0 6.62675e-07 
1.35149e-09 0 0 0 2.84941e-09 1.13287e-09 0 0 0 
0 0 0 0 0 0 0 0 0 
0 0 0 0 0 0 0 0 0 
0 0 0 0 0 0 0 0 0 
0 0 0 0 0 0 0 0 4.24495e-09 
0 8.65105e-07 0 0 0 0 0 1.17964e-09 0 
8.04413e-10 0 0 0 0 0 0 0 9.77714e-10 
0 0 0 0 0 0 0 0 0 
0 2.1755e-09 0 2.07003e-09 0 7.41133e-07 0 0 3.7515e-09 
0 0 0 0 3.97048e-10 0 0 0 0 
0 0 0 0 0 0 0 0 0 
0 0 0 0 0 2.13368e-09 0 0 0 
0 3.48694e-10 0 0 0 0 0 0 0 
0 0 0 0 0 0 0 0 0 
0 0 0 0 0 0 0 0 0 
0 0 0 0 1.14624e-09 0 1.14676e-09 0 0 
0 0 1.78923e-08 0 2.55183e-09 0 0 0 0 
0 0 0 0 0 0 0 0 0 
0 0 0 1.67342e-09 0 0 0 2.27765e-09 0 
4.48979e-09 7.10093e-07 2.9993e-09 0 0 0 6.97923e-09 3.50521e-09 5.35025e-09 
0 0 0 0 8.65242e-07 0 0 0 0 
0 0 0 0 0 0 0 3.03986e-10 0 
1.08022e-09 0 1.49501e-09 0 0 1.82078e-09 2.47361e-09 0 1.11016e-09 
1.18176e-09 3.85196e-10 0 0 0 0 0 0 0 
0 0 0 0 0 0 0 0 0 
0 0 0 0 0 0 0 0 0 
0 0 0 0 0 0 0 0 0 
0 0 1.7006e-09 0 0 0 5.53812e-10 0 0 
0 0 0 0 0 0 0 0 0 
0 0 0 0 0 2.89459e-09 6.46942e-07 5.41583e-09 1.31744e-09 
0 3.74954e-09 0 0 0 1.8949e-09 0 2.32751e-09 0 
0 0 0 0 2.44151e-09 8.6149e-07 0 3.6007e-09 1.62005e-09 
0 0 0 0 0 0 0 0 0 
0 0 0 0 3.89266e-10 6.47348e-10 0 0 2.31186e-09 
0 0 0 0 0 0 0 0 0 
0 0 0 0 0 0 0 0 0 
0 0 0 0 0 0 0 0 0 
0 0 0 0 0 0 0 4.00027e-09 0 
0 1.53477e-09 0 9.66641e-10 0 0 0 0 1.35044e-09 
0 0 0 0 0 0 0 0 0 
0 0 0 0 0 0 0 3.12777e-09 0 
0 0 0 2.08723e-09 0 0 0 0 0 
0 0 0 0 0 0 0 0 0 
0 0 0 0 0 0 0 0 0 
0 0 0 0 0 0 1.48044e-09 0 6.52409e-07 
0 1.74466e-09 0 0 0 0 0 0 0 
0 0 0 0 0 0 0 0 0 
0 0 0 0 0 0 0 0 0 
0 0 0 0 0 0 0 0 6.44243e-07 
0 0 9.61872e-10 0 2.10596e-09 3.4686e-09 0 4.35732e-10 9.8414e-10 
1.02174e-09 0 0 0 0 0 0 0 0 
0 0 0 0 0 0 0 0 6.94391e-10 
0 0 0 0 7.01759e-10 0 0 6.9859e-10 0 
0 0 0 0 0 1.3443e-09 0 5.01288e-09 0 
1.97866e-09 0 0 0 4.09967e-09 0 7.24335e-10 7.15086e-10 0 
0 0 0 0 0 0 0 0 3.53863e-09 
1.9199e-09 0 0 0 0 1.48595e-09 0 0 0 
0 0 0 0 0 0 0 0 0 
0 0 0 0 0 0 0 0 0 
0 0 0 0 0 0 0 0 2.18031e-09 
1.3906e-09 0 3.55134e-10 0 0 0 1.00021e-09 0 0 
0 0 0 0 0 0 0 0 0 
0 0 0 0 1.2764e-09 0 0 0 8.52976e-10 
0 0 0 0 0 7.97917e-10 0 0 0 
0 0 0 0 0 0 0 0 0 
0 0 2.24359e-09 0 1.14781e-09 6.82794e-07 0 3.00297e-09 0 
0 0 0 0 0 0 0 0 0 
0 0 0 0 0 0 0 1.26354e-09 0 
0 0 0 0 0 0 0 0 0 
0 0 0 0 0 0 0 0 0 
0 0 0 0 0 0 0 0 0 
0 2.12656e-09 1.64919e-09 1.23444e-09 0 0 0 3.11634e-09 6.59396e-07 
4.51801e-09 0 0 0 0 0 0 0 0 
4.34274e-10 3.39356e-10 0 0 2.19077e-10 9.88717e-10 0 0 0 
0 0 0 0 0 0 0 3.39134e-10 0 
0 0 0 0 0 0 0 0 1.42847e-09 
0 0 2.7009e-09 6.95315e-10 0 0 0 0 3.17807e-09 
0 0 0 0 0 0 0 0 0 
1.25653e-09 0 0 0 0 1.94945e-09 0 0 0 
0 0 0 0 0 0 0 0 0 
0 0 0 0 0 0 0 0 0 
0 0 0 0 0 0 0 0 0 
0 7.70059e-10 0 0 9.21156e-10 0 0 0 0 
0 0 4.46924e-09 0 6.73141e-07 0 0 1.57244e-09 0 
0 0 0 0 0 0 0 9.39766e-10 0 
0 0 0 0 9.4004e-10 0 0 2.55299e-09 0 
0 0 0 0 0 0 0 0 0 
0 6.046e-10 0 0 0 6.79213e-07 6.48729e-09 0 0 
4.02153e-09 0 0 0 0 0 0 0 0 
0 6.8127e-10 2.17867e-09 0 6.52448e-07 4.16339e-09 0 0 2.62442e-09 
0 1.72483e-09 0 0 0 0 0 0 0 
0 0 0 0 0 0 0 0 0 
0 0 0 0 0 0 0 0 0 
0 0 0 0 0 0 0 0 0 
0 0 0 0 0 0 0 0 0 
0 0 0 0 3.77963e-09 0 0 2.777e-09 0 
0 0 2.67233e-09 0 0 0 2.70386e-09 6.45463e-07 0 
4.49112e-09 0 0 0 0 0 0 0 0 
6.47107e-07 4.45292e-09 0 1.21959e-09 0 0 0 0 0 
1.48275e-08 6.62927e-07 0 2.16573e-09 0 0 0 0 0 
0 0 1.10839e-09 0 0 0 0 0 0 
0 0 8.56464e-07 0 0 0 0 0 0 
0 0 0 0 0 0 0 0 0 
0 0 0 0 0 0 0 0 0 
0 0 0 0 0 0 0 0 0 
0 0 0 0 0 0 4.7701e-09 0 0 
1.35036e-09 2.21964e-10 0 0 7.82906e-10 0 6.70815e-07 0 3.69218e-09 
0 0 0 0 0 0 2.29263e-09 5.13866e-10 0 
0 0 5.18655e-10 0 0 0 0 0 0 
0 0 1.47496e-09 0 0 0 3.64604e-09 0 0 
0 0 0 2.68392e-09 0 0 0 0 0 
0 0 0 0 0 0 0 0 8.77739e-10 
0 2.83202e-09 0 8.56755e-07 5.15199e-09 0 0 0 0 
0 0 0 0 0 0 0 0 0 
0 0 0 0 0 0 0 0 0 
0 0 0 0 0 0 0 0 1.1797e-09 
0 1.91031e-09 0 0 0 7.64974e-09 6.9549e-07 2.78247e-09 2.59971e-09 
9.97176e-10 2.68675e-09 0 0 0 0 0 0 0 
0 0 0 8.14144e-07 0 1.0525e-09 0 2.01063e-09 0 
0 0 1.84468e-10 0 0 0 0 0 0 
2.17134e-09 1.45846e-11 0 0 0 0 0 0 0 
6.90417e-10 0 0 0 0 0 2.40906e-10 0 0 
0 0 0 0 0 0 1.80253e-09 0 0 
0 0 0 0 0 0 1.3059e-09 0 3.66928e-10 
0 0 0 0 0 0 0 0 0 
0 0 0 0 0 0 0 0 0 
0 0 0 0 0 0 3.96087e-09 1.12557e-09 4.62651e-09 
0 1.17199e-09 0 2.58082e-09 8.11418e-07 0 0 0 3.02137e-09 
6.57274e-10 0 0 0 0 0 0 0 0 
0 0 7.35731e-07 0 2.20282e-09 7.87442e-07 8.99995e-09 0 0 
1.32444e-09 1.8226e-09 0 0 0 0 0 0 0 
0 0 0 3.54622e-10 0 0 0 0 0 
0 0 0 0 0 0 0 0 0 
0 0 0 0 0 0 0 0 0 