# vtk DataFile Version 5.1
vtk output
ASCII
DATASET STRUCTURED_POINTS
DIMENSIONS 100 100 1
SPACING 1 1 1
ORIGIN 0 0 0
POINT_DATA 10000
FIELD FieldData 6
feature_1 1 10000 float
0 0 0 0 0 0 0 0 0 
0 0 0 0 0 0 0 0 0 
0 0 0 0 0 0 0 0 0 
0 0 0 0 0 0 0 0 0 
0 0 0 0 0 0 0 0 0 
0 0 0 0 0 0 0 0 0 
0 0 0 0 0 0 0 0 0 
0 0 0 0 0 0 0 0 0 
0 0 0 0 0 0 0 0 0 
0 0 0 0 0 0 0 0 0 
0 0 0 0 0 0 0 0 0 
0 0 0 0 0 0 0 0 0 
0 0 0 0 0 0 0 0 0 
0 0 0 0 0 0 0 0 0 
0 0 0 0 0 0 0 0 0 
0 0 0 0 0 0 0 0 0 
0 0 0 0 0 0 0 0 0 
0 0 0 0 0 0 0 0 0 
0 0 0 0 0 0 0 0 0 
0 0 0 0 0 0 0 0 0 
0 0 0 0 0 0 0 0 0 
0 0 0 0 0 0 0 0 0 
0 0 0 0 0 0 0 0 0 
0 0 0 0 0 0 0 0 0 
0 0 0 0 0 0 0 0 0 
0 0 0 0 0 0 0 0 0 
0 0 0 0 0 0 0 0 0 
0 0 0 0 0 0 0 0 0 
0 0 0 0 0 0 0 0 0 
0 0 0 0 0 0 0 0 0 
0 0 0 0 0 0 0 0 0 
0 0 0 0 0 0 0 0 0 
0 0 0 0 0 0 0 0 0 
0 0 0 0 0 0 0 0 0 
0 0 0 0 0 0 0 0 0 
0 0 0 0 0 0 0 0 0 
0 0 0 0 0 0 0 0 0 
0 0 0 0 0 0 0 0 0 
0 0 0 0 0 0 0 0 0 
0 0 0 0 0 0 0 0 0 
0 0 0 0 0 0 0 0 0 
0 0 0 0 0 0 0 0 0 
0 0 0 0 0 0 0 0 0 
0 0 0 0 0 0 0 0 0 
0 0 0 0 0 0 0 0 0 
0 0 0 0 0 0 0 0 0 
0 0 0 0 0 0 0 0 0 
0 0 0 0 0 0 0 0 0 
0 0 0 0 0 0 0 0 0 
0 0 0 0 0 0 0 0 0 
0 0 0 0 0 0 0 0 0 
0 0 0 0 0 0 0 0 0 
0 0 0 0 0 0 0 0 0 
0 0 0 0 0 0 0 0 0 
0 0 0 0 0 0 0 0 0 
0 0 0 0 0 0 0 0 0 
0 0 0 0 0 0 0 0 0 
0 0 0 0 0 0 0 0 0 
0 0 0 0 0 0 0 0 0 
0 0 0 0 0 0 0 0 0 
0 0 0 0 0 0 0 0 0 
0 0 0 0 0 0 0 0 0 
0 0 0 0 0 0 0 0 0 
0 0 0 0 0 0 0 0 0 
0 0 0 0 0 0 0 0 0 
0 0 0 0 0 0 0 0 0 
0 0 0 0 0 0 0 0 0 
0 0 0 0 0 0 0 0 0 
0 0 0 0 0 0 0 0 0 
0 0 0 0 0 0 0 0 0 
0 0 0 0 0 0 0 0 0 
0 0 0 0 0 0 0 0 0 
0 0 0 0 0 0 0 0 0 
0 0 0 0 0 0 0 0 0 
0 0 0 0 0 0 0 0 0 
0 0 0 0 0 0 0 0 0 
0 0 0 0 0 0 0 0 0 
0 0 0 0 0 0 0 0 0 
0 0 0 0 0 0 0 0 0 
0 0 0 0 0 0 0 0 0 
0 0 0 0 0 0 0 0 0 
0 0 0 0 0 0 0 0 0 
0 0 0 0 0 0 0 0 0 
0 0 0 0 0 0 0 0 0 
0 0 0 0 0 0 0 0 0 
0 0 0 0 0 0 0 0 0 
0 0 0 0 0 0 0 0 0 
0 0 0 0 0 0 0 0 0 
0 0 0 0 0 0 0 0 0 
0 0 0 0 0 0 0 0 0 
0 0 0 0 0 0 0 0 0 
0 0 0 0 0 0 0 0 0 
0 0 0 0 0 0 0 0 0 
0 0 0 0 0 0 0 0 0 
0 0 0 0 0 0 0 0 0 
0 0 0 0 0 0 0 0 0 
0 0 0 0 0 0 0 0 0 
0 0 0 0 0 0 0 0 0 
0 0 0 0 0 0 0 0 0 
0 0 0 0 0 0 0 0 0 
0 0 0 0 0 0 0 0 0 
0 0 0 0 0 0 0 0 0 
0 0 0 0 0 0 0 0 0 
0 3.3269e-11 0 0 0 0 0 0 0 
0 0 0 0 0 0 0 6.35871e-10 0 
0 0 0 0 0 0 0 0 0 
0 0 0 0 0 0 0 0 0 
0 0 0 0 0 0 0 0 0 
0 0 0 0 0 0 0 0 0 
0 0 0 0 0 0 0 0 0 
0 0 0 0 0 0 0 0 0 
0 0 0 0 0 0 0 0 0 
0 0 0 0 0 0 0 0 0 
0 0 0 0 0 0 0 0 0 
0 0 0 0 0 0 0 0 0 
0 0 4.09248e-12 0 0 0 0 0 0 
0 1.7727e-09 0 0 0 2.24847e-11 0 0 0 
0 0 0 0 0 0 0 2.30057e-09 0 
0 0 0 0 0 0 0 0 0 
0 0 0 0 0 5.2501e-10 0 0 0 
0 0 0 0 0 0 0 0 0 
0 0 0 0 0 0 0 0 0 
0 0 0 0 0 0 0 0 0 
0 0 0 0 0 0 0 0 0 
0 0 0 0 0 0 0 0 0 
0 0 0 0 0 0 0 0 0 
0 0 0 0 0 0 0 0 1.71024e-09 
0 0 0 0 0 0 0 0 0 
0 0 0 0 0 0 0 0 0 
0 0 0 0 0 0 0 0 0 
0 0 0 0 3.94374e-10 0 0 0 0 
0 0 0 0 0 0 0 0 0 
0 0 0 0 0 0 0 0 0 
0 0 0 0 0 0 0 0 0 
0 0 0 0 0 0 0 0 0 
0 0 0 0 0 0 0 0 0 
0 0 0 0 0 0 0 0 0 
0 0 0 0 0 0 0 0 0 
0 0 0 7.84752e-07 6.69818e-09 2.19534e-09 0 0 0 
0 0 0 0 0 0 0 1.34131e-09 6.4046e-07 
1.36624e-09 0 0 0 0 0 0 0 0 
0 0 0 0 0 0 0 5.04988e-10 0 
0 0 0 0 0 0 0 0 0 
0 0 0 0 0 0 0 0 0 
0 0 0 0 0 0 0 0 0 
0 0 0 0 0 0 0 0 0 
0 0 0 0 0 0 0 0 0 
0 0 0 0 0 0 5.59277e-10 0 0 
0 0 0 1.30759e-09 1.04981e-10 0 0 0 0 
3.18594e-09 0 0 8.24765e-07 0 6.46514e-09 0 0 0 
8.53555e-10 0 0 0 0 6.32886e-10 0 0 0 
0 0 1.88723e-09 1.14974e-09 0 0 0 0 0 
0 0 0 0 0 0 0 0 0 
0 1.56072e-09 0 0 0 0 0 0 0 
0 0 0 0 0 0 0 0 0 
0 0 0 0 0 0 0 0 0 
0 0 0 0 0 0 0 0 0 
0 0 0 0 0 0 0 0 0 
0 0 0 0 4.42612e-09 6.42399e-07 0 1.55726e-09 0 
0 0 0 1.42603e-09 0 8.13467e-09 0 0 1.14569e-09 
0 0 0 0 0 0 0 0 0 
0 0 0 0 0 0 0 0 6.11635e-10 
0 0 0 0 0 0 0 0 0 
0 0 0 0 0 0 1.5034e-09 0 0 
6.41943e-07 1.46396e-09 0 0 0 0 0 0 0 
0 0 0 0 0 0 0 0 0 
0 0 0 0 0 0 0 0 0 
0 0 0 0 0 0 0 0 0 
0 0 0 0 0 0 0 0 0 
0 0 0 0 0 0 0 0 0 
8.5124e-10 0 0 0 0 3.92294e-09 6.42103e-07 4.8262e-09 2.74067e-09 
0 0 0 0 0 0 7.89077e-07 0 0 
6.58677e-10 0 0 0 0 0 0 0 0 
0 0 1.25347e-09 0 0 0 0 0 0 
0 0 0 0 9.53174e-10 0 0 0 0 
0 4.10396e-10 0 0 0 0 0 0 0 
0 0 0 0 0 0 0 0 0 
0 0 0 0 0 0 0 0 0 
0 0 0 0 0 0 0 0 0 
0 0 0 0 0 0 0 0 0 
0 0 0 0 0 0 1.79618e-09 0 0 
0 0 0 0 0 0 2.33678e-09 0 0 
0 0 0 0 0 7.34117e-07 1.24847e-08 0 0 
0 0 6.83681e-07 0 0 1.10035e-09 0 0 0 
0 0 0 0 1.46527e-09 0 1.77776e-09 0 2.05081e-09 
0 0 0 8.33014e-10 0 0 0 0 0 
0 0 0 0 0 0 0 0 0 
9.58697e-11 0 0 0 0 0 0 0 0 
0 0 0 0 0 0 0 0 0 
0 0 0 0 0 0 0 0 0 
0 0 0 0 0 0 0 0 0 
0 0 0 0 0 6.72051e-10 0 5.25602e-09 0 
1.56163e-09 0 0 4.40717e-10 0 0 0 0 2.43396e-09 
0 0 0 0 0 0 0 0 0 
0 0 0 0 0 0 1.18546e-09 3.35266e-10 3.62304e-10 
0 0 0 0 0 0 0 7.13316e-07 0 
7.13062e-07 8.49699e-09 0 0 0 0 0 0 6.61924e-07 
0 0 0 0 0 0 0 0 0 
0 0 0 0 0 0 0 0 0 
0 0 0 0 0 0 0 0 0 
0 0 0 0 0 0 0 0 0 
0 0 0 0 0 0 0 0 0 
0 0 0 0 0 3.81001e-09 0 1.33294e-09 0 
0 0 0 0 0 0 0 0 0 
0 1.36452e-09 0 4.65189e-09 5.54677e-09 0 0 0 0 
0 0 0 0 0 0 1.69876e-09 0 0 
0 0 0 0 0 1.38084e-09 0 0 0 
0 0 2.49447e-09 0 0 3.13349e-10 0 0 0 
0 2.91593e-11 1.98974e-09 2.44036e-09 1.633e-09 0 0 0 0 
0 0 0 0 0 0 0 0 0 
0 0 0 0 0 0 0 0 0 
0 0 0 0 0 0 0 0 0 
0 0 0 0 0 0 0 0 0 
0 0 0 0 0 0 0 2.19349e-09 0 
3.99308e-09 6.45029e-07 7.47304e-10 0 0 0 0 0 0 
0 0 0 0 6.46039e-07 0 0 0 0 
0 8.89339e-07 9.05638e-07 0 2.30538e-09 7.13003e-07 0 0 0 
0 0 0 0 0 0 0 1.7394e-09 0 
0 1.68596e-09 9.22219e-10 0 0 1.27491e-09 0 0 0 
2.04678e-09 0 0 1.16545e-09 0 0 0 0 0 
0 0 0 0 0 0 0 8.19168e-10 0 
0 0 0 0 0 0 0 0 0 
0 0 0 0 0 0 0 0 0 
0 0 0 0 0 0 0 0 0 
0 0 0 7.09625e-10 2.25142e-09 4.52991e-09 6.42392e-07 5.52756e-09 0 
0 2.79049e-09 3.54614e-09 0 0 0 0 0 0 
0 0 0 0 0 0 0 0 1.69074e-09 
0 0 0 0 0 0 1.99528e-09 0 1.21313e-09 
0 0 0 0 0 0 0 0 0 
0 0 3.20433e-10 0 0 0 0 0 0 
0 0 9.54025e-10 0 0 0 0 0 0 
4.36391e-10 0 0 0 0 0 1.45169e-09 1.43177e-09 0 
0 0 0 0 0 0 0 0 0 
0 0 0 0 0 0 0 0 0 
0 0 0 0 0 0 0 0 0 
0 0 0 0 0 2.19945e-12 0 0 5.25331e-09 
2.15361e-09 0 1.13011e-09 0 0 6.15303e-10 0 0 0 
0 6.05914e-10 0 0 0 0 0 0 6.37545e-10 
1.85431e-09 0 0 0 0 0 0 3.56027e-09 0 
1.23898e-09 0 0 0 0 2.35805e-10 0 0 0 
0 0 0 0 0 1.40859e-09 0 0 0 
0 0 0 0 0 0 0 0 1.57433e-09 
0 4.9239e-10 0 0 0 0 0 1.31547e-09 0 
0 0 0 0 0 0 0 0 0 
0 0 0 0 0 0 0 0 0 
0 0 0 0 0 0 0 0 0 
0 0 0 0 1.42686e-09 0 0 0 0 
0 0 0 0 1.07526e-09 0 0 0 0 
0 0 0 0 0 0 8.97416e-10 9.54701e-10 0 
5.8213e-10 0 0 0 0 2.00596e-09 0 0 0 
0 3.50668e-10 1.48904e-09 0 0 0 0 0 0 
0 0 0 0 0 0 0 4.78188e-09 0 
1.36052e-10 0 0 0 0 1.63871e-09 0 0 7.68968e-10 
0 0 0 0 0 0 0 0 0 
7.13133e-07 0 0 1.64014e-09 0 0 0 0 0 
0 0 0 0 0 0 0 0 0 
0 0 0 0 0 0 0 0 0 
0 0 0 0 0 1.42105e-10 0 0 0 
1.01428e-09 7.1118e-10 0 3.83837e-10 0 0 0 9.54692e-10 0 
0 0 0 3.92048e-10 0 0 7.67638e-10 0 0 
5.86293e-10 0 0 0 1.59091e-09 0 0 8.68633e-07 8.65831e-07 
0 0 0 0 0 0 0 0 0 
3.40452e-10 0 0 0 0 0 0 0 6.42547e-07 
0 0 0 4.40767e-10 0 0 0 0 0 
0 6.50351e-07 7.85153e-09 0 0 0 0 0 0 
5.63932e-09 1.79086e-09 0 0 0 0 0 0 0 
0 0 0 0 0 0 0 0 0 
0 0 0 0 0 0 0 0 0 
6.67503e-10 0 0 0 0 0 0 1.43319e-09 0 
0 6.23281e-10 0 0 0 0 0 0 0 
1.69314e-09 0 0 0 0 7.62275e-10 0 0 0 
0 0 0 0 0 0 0 1.27704e-10 3.40384e-09 
0 0 2.27548e-09 0 2.84725e-10 1.10878e-09 6.41148e-07 1.98379e-09 0 
1.22073e-09 0 0 0 0 0 0 2.74626e-09 0 
0 0 0 0 0 0 4.7637e-09 0 0 
0 0 1.56349e-09 0 3.5617e-09 0 0 0 0 
1.14531e-09 0 7.19713e-07 1.83052e-09 0 2.87516e-10 0 0 0 
0 0 0 0 0 0 0 0 0 
0 0 0 0 0 0 0 0 0 
0 1.09206e-09 0 1.30105e-09 1.44541e-09 0 0 1.18201e-09 0 
0 0 0 2.02389e-10 0 0 0 0 0 
0 0 2.83814e-09 0 1.20722e-09 0 1.17448e-09 0 0 
0 0 0 0 0 0 0 2.14835e-09 0 
4.42273e-09 2.60702e-11 0 0 2.38767e-09 0 7.14566e-10 2.61654e-09 0 
0 0 9.57057e-10 0 0 0 0 5.87202e-10 0 
5.13888e-10 0 1.93029e-09 0 0 0 9.63196e-09 6.49342e-07 5.21573e-09 
0 0 0 0 0 0 0 6.51782e-10 0 
0 0 4.09466e-09 0 0 0 0 0 0 
0 0 0 0 0 0 0 0 0 
0 0 0 0 0 0 0 0 0 
0 0 0 0 0 0 0 0 0 
7.12064e-07 0 0 0 0 0 0 0 0 
0 0 4.28627e-09 6.42788e-07 0 0 1.87306e-09 0 6.93438e-07 
0 2.68389e-09 1.5102e-09 0 0 0 0 1.14615e-09 0 
0 0 0 0 0 0 0 0 0 
0 0 0 0 0 0 0 0 0 
0 0 1.36411e-09 0 0 0 0 0 3.44438e-09 
0 0 2.97059e-09 0 0 0 0 0 0 
0 0 0 3.12751e-09 0 0 1.25852e-09 0 0 
0 0 0 0 0 0 0 0 0 
0 0 0 0 0 0 0 0 0 
0 0 0 6.54678e-07 0 0 0 0 7.67703e-07 
0 0 0 0 0 0 0 0 0 
0 0 1.16636e-09 1.34658e-09 0 0 0 0 0 
0 0 6.99956e-07 0 0 3.77646e-09 0 0 0 
0 1.36023e-09 3.27675e-09 0 0 6.73967e-10 0 0 0 
1.08102e-09 0 0 0 0 0 0 0 3.51959e-10 
0 1.11825e-09 0 0 0 0 0 0 0 
0 0 0 0 0 6.51224e-07 0 0 0 
0 4.06154e-10 0 0 1.00745e-09 0 0 0 0 
0 0 0 0 0 0 0 0 0 
0 0 0 0 0 0 0 0 0 
0 0 1.8217e-09 3.64543e-09 0 0 0 0 0 
0 0 3.93121e-09 2.29805e-09 0 0 8.00403e-10 0 0 
0 0 0 0 0 0 0 0 0 
2.04406e-09 0 0 0 0 0 2.7666e-09 6.02421e-09 0 
0 6.03005e-09 6.98307e-07 0 0 0 0 0 0 
4.46248e-10 0 0 0 0 2.79339e-09 4.2128e-09 0 0 
0 0 0 0 0 0 1.77032e-09 0 0 
0 0 2.31552e-09 0 0 0 0 0 0 
0 0 0 0 0 6.6758e-07 0 0 0 
2.89283e-10 0 0 0 0 0 0 0 0 
0 0 0 0 0 0 0 0 0 
0 0 0 7.23338e-10 5.31927e-10 0 0 0 7.04482e-07 
9.33972e-09 0 7.3588e-07 4.31827e-09 2.42634e-09 0 0 0 0 
0 1.01118e-09 0 0 0 0 0 8.66669e-10 0 
0 1.16034e-09 1.37091e-09 0 0 0 0 0 0 
0 0 0 7.75994e-09 0 0 0 0 0 
0 0 0 0 1.27719e-09 0 6.54172e-07 4.8825e-09 2.97183e-09 
0 0 0 0 0 0 6.45965e-07 2.1431e-09 1.88748e-09 
0 0 7.00171e-09 3.58944e-09 2.60062e-09 0 0 0 4.27142e-10 
0 0 1.0233e-09 0 0 0 0 3.94654e-10 0 
0 0 0 0 0 0 0 0 0 
0 0 0 0 0 0 0 0 0 
0 0 0 0 0 0 2.56508e-09 2.59907e-09 0 
0 0 0 0 0 0 0 1.03941e-09 3.01473e-09 
0 0 0 0 0 0 0 0 0 
0 0 0 0 0 0 0 0 0 
6.9553e-07 0 0 7.17167e-07 4.71189e-09 0 0 0 0 
0 0 0 0 0 0 0 3.09783e-09 0 
0 0 0 1.92574e-09 1.53291e-09 0 4.69922e-09 0 3.61625e-09 
0 0 4.68563e-09 6.46181e-07 0 0 1.29516e-09 0 1.14889e-09 
0 0 0 0 2.33725e-09 0 0 0 0 
0 0 0 0 0 0 0 0 0 
0 0 0 0 0 0 0 0 0 
0 0 0 0 0 0 0 0 0 
0 0 0 1.82992e-09 1.23315e-09 0 1.85382e-09 3.27758e-09 2.97844e-10 
0 8.63826e-07 0 0 0 0 0 0 0 
0 0 0 0 0 0 0 7.14539e-07 0 
5.92846e-09 0 0 0 0 0 0 0 0 
0 0 0 9.19162e-10 1.70932e-09 0 1.85275e-09 4.15507e-09 0 
2.36738e-09 0 0 0 0 0 0 3.95682e-10 0 
0 0 0 0 0 0 0 9.48196e-10 0 
3.91683e-10 0 0 0 2.99638e-09 0 0 6.70777e-07 0 
0 0 0 0 0 0 0 0 0 
0 0 0 0 0 0 0 0 0 
0 0 0 0 0 0 0 0 0 
0 0 1.36525e-09 0 1.49156e-09 0 0 0 0 
3.80694e-09 1.55414e-09 8.76903e-07 0 0 0 0 0 4.12325e-10 
0 0 0 0 0 2.93234e-09 0 6.17103e-09 0 
0 0 3.07179e-09 2.99954e-09 0 0 0 0 0 
0 0 0 0 0 1.3436e-09 0 5.36141e-07 0 
0 3.50029e-09 0 0 0 0 2.68496e-09 3.31241e-09 0 
0 0 9.95632e-10 2.2904e-09 4.55069e-10 0 0 0 0 
0 0 0 0 0 0 1.90416e-09 0 0 
0 0 0 0 0 0 0 0 0 
0 0 0 0 0 0 0 0 0 
0 0 0 0 0 0 0 0 0 
0 0 0 0 0 0 0 0 0 
0 0 0 0 0 0 6.7863e-07 4.28649e-09 0 
0 7.02558e-10 0 0 0 0 0 0 0 
0 0 0 0 0 0 0 0 0 
0 0 0 0 0 0 0 0 5.64171e-09 
0 0 0 0 7.41296e-07 0 7.96244e-07 0 0 
0 0 0 0 0 0 0 0 0 
0 0 0 0 0 3.6284e-09 6.51665e-07 0 0 
0 0 0 0 0 0 0 0 0 
0 0 0 0 0 0 0 0 0 
0 0 0 0 0 0 0 0 0 
0 0 0 0 0 0 0 0 0 
2.30432e-09 1.60055e-09 0 0 7.31223e-10 4.79663e-09 1.38816e-09 4.80832e-09 8.79576e-10 
0 1.71147e-09 0 0 0 0 0 0 0 
8.90428e-07 9.04428e-07 0 3.85854e-09 0 5.65872e-10 0 0 4.8441e-09 
0 0 0 0 0 0 0 0 0 
4.59089e-10 1.7686e-09 2.03764e-09 0 0 0 0 3.86245e-09 0 
1.56182e-09 0 0 0 0 1.03977e-09 0 0 0 
1.1935e-10 0 0 0 0 0 2.61492e-09 2.4405e-09 0 
2.39376e-09 2.89179e-09 0 0 0 0 0 0 0 
0 0 0 0 0 0 0 0 0 
0 0 0 0 0 0 0 0 0 
0 0 0 0 0 0 0 0 0 
0 0 0 2.37807e-09 0 0 0 0 0 
0 5.56678e-10 0 0 0 0 0 0 0 
0 0 0 0 0 0 0 0 3.77039e-09 
0 0 2.26463e-09 0 3.77801e-09 0 0 0 0 
0 2.77082e-09 0 0 0 0 0 0 3.63748e-09 
0 0 0 7.28356e-07 0 1.59426e-09 0 0 0 
0 0 0 0 0 0 0 0 0 
0 0 0 0 0 0 0 0 0 
0 0 0 0 0 0 0 0 0 
0 0 0 0 0 0 0 0 0 
0 0 0 0 0 0 0 0 0 
0 0 0 3.80387e-09 7.07916e-07 0 9.12264e-09 0 0 
4.27189e-09 3.60364e-09 0 2.38549e-09 0 0 0 0 1.18197e-09 
0 0 0 0 0 0 0 0 0 
0 7.54462e-07 0 0 0 6.5402e-07 0 0 0 
0 7.61474e-10 0 0 0 0 0 0 0 
8.22636e-07 0 0 0 2.7891e-09 0 0 0 4.22771e-10 
0 0 0 0 0 0 0 0 0 
0 0 0 1.70604e-10 0 0 0 0 0 
0 0 0 0 0 0 0 0 0 
0 0 0 0 0 0 0 0 0 
0 0 0 6.66445e-10 0 0 0 0 0 
0 0 0 0 0 0 0 7.71117e-07 4.50642e-09 
0 0 0 6.49229e-07 0 0 1.42531e-09 0 0 
0 1.65719e-09 0 0 7.05092e-07 0 0 0 0 
0 0 1.07587e-08 0 0 0 4.40366e-09 0 0 
0 0 0 0 0 0 8.38654e-10 0 0 
0 0 9.57894e-10 0 7.40514e-07 6.73175e-09 0 0 0 
0 0 0 0 0 0 0 0 0 
0 0 0 0 0 0 0 0 0 
0 0 0 0 0 0 0 0 0 
0 0 0 0 0 0 0 0 0 
0 0 0 0 0 0 1.15111e-09 0 0 
0 0 0 0 2.90706e-10 0 0 0 5.52045e-09 
0 0 0 3.66009e-09 4.79122e-09 0 1.32694e-09 0 0 
0 0 4.69968e-10 0 0 0 0 9.81123e-10 0 
0 8.7076e-07 0 8.1238e-07 2.51288e-09 4.32211e-09 0 3.26209e-10 1.92262e-09 
1.4289e-09 0 0 0 0 0 0 0 0 
0 0 2.61895e-09 0 0 0 0 0 0 
0 0 0 0 0 0 0 0 0 
0 0 0 0 0 0 0 0 0 
0 0 0 0 0 0 0 0 0 
0 0 0 0 0 0 0 0 0 
0 0 0 0 0 0 0 0 0 
4.68717e-10 0 0 2.34051e-10 0 0 2.12329e-09 2.21118e-09 1.0605e-08 
7.2608e-07 0 0 1.60383e-09 0 0 0 0 0 
0 0 0 0 4.2131e-10 0 0 9.38937e-09 0 
0 8.49501e-07 0 0 0 0 0 0 0 
0 0 0 0 0 6.62151e-07 0 3.65411e-09 0 
0 1.97546e-09 0 0 4.33755e-09 0 0 0 0 
0 4.57537e-10 0 0 0 0 0 0 0 
0 0 6.00338e-10 0 0 0 0 6.74436e-10 0 
0 0 0 0 0 0 0 0 0 
0 0 0 0 0 0 0 0 0 
0 0 0 0 0 0 0 6.39931e-07 0 
0 0 0 0 0 0 0 0 0 
0 0 0 0 1.91994e-09 1.17199e-09 0 0 3.7852e-10 
0 0 0 0 0 0 0 0 0 
7.47061e-07 0 0 0 0 0 0 0 0 
0 0 0 0 0 0 5.07589e-09 0 3.69333e-09 
0 0 0 0 0 0 2.73572e-09 0 1.6912e-09 
9.96859e-10 0 0 0 0 0 0 0 0 
0 0 0 0 0 0 0 0 0 
0 0 0 0 0 0 0 0 0 
0 0 0 0 0 0 0 0 0 
0 0 0 0 0 0 2.1732e-09 2.34772e-09 0 
0 0 0 0 0 5.24886e-10 0 5.3991e-10 0 
1.57751e-09 1.3637e-09 1.8116e-10 0 0 0 0 0 0 
0 0 0 0 0 9.43628e-10 0 2.8985e-09 0 
0 0 0 0 0 0 0 1.55698e-09 0 
0 0 0 0 0 0 0 0 0 
4.45708e-09 0 0 8.37339e-07 0 8.3321e-07 9.26116e-09 0 0 
0 0 0 0 0 0 0 0 0 
3.43485e-10 0 0 0 3.64214e-09 0 0 0 0 
2.00961e-09 0 0 0 0 0 0 0 0 
0 0 0 0 0 0 0 0 0 
0 0 0 0 0 0 0 0 0 
0 0 0 0 1.63773e-09 0 0 0 0 
0 0 0 0 1.85309e-11 0 0 0 0 
0 0 0 0 0 0 0 0 0 
1.88141e-09 0 4.77364e-09 0 0 4.53031e-09 0 0 0 
0 0 0 0 0 0 0 0 0 
6.70118e-07 2.71709e-09 0 0 0 8.71705e-07 0 3.74246e-09 2.9192e-09 
6.44922e-10 0 0 0 0 0 0 0 3.33858e-10 
0 0 0 0 4.20283e-09 0 0 0 7.10431e-07 
0 0 0 3.34421e-10 0 0 0 0 0 
0 0 0 0 0 0 0 0 0 
0 0 0 0 0 0 0 0 0 
0 0 0 0 0 0 0 6.40009e-07 0 
0 0 0 0 0 0 0 3.65921e-10 0 
0 0 0 0 6.44368e-07 0 0 0 0 
0 0 0 0 8.98085e-07 8.84235e-07 0 0 0 
0 0 0 0 0 0 0 0 0 
2.99808e-09 9.33316e-09 0 0 0 1.77038e-09 0 0 1.68231e-09 
2.42635e-11 0 0 0 0 5.53645e-10 0 0 0 
1.50881e-09 0 0 0 0 5.5898e-09 6.93372e-07 0 0 
0 0 4.12455e-10 0 0 0 0 0 0 
0 0 0 0 0 0 0 0 0 
0 0 0 0 0 0 0 0 0 
0 0 0 0 0 0 0 1.35554e-09 1.84672e-09 
0 0 0 0 0 0 0 0 0 
0 0 0 0 0 0 0 2.31916e-09 0 
0 0 0 0 0 1.13017e-08 0 0 0 
0 0 0 0 0 0 0 0 8.63263e-10 
0 0 0 0 0 0 0 0 0 
0 0 3.15877e-10 0 0 0 0 0 0 
0 0 1.68409e-09 0 0 0 0 1.77932e-09 0 
4.95618e-09 0 7.04819e-07 0 0 0 0 0 0 
0 0 0 0 0 0 0 0 0 
0 0 0 0 0 0 0 0 0 
0 0 0 0 0 0 0 0 0 
0 0 0 0 0 0 0 0 0 
0 0 0 0 0 2.52371e-09 0 0 0 
0 0 0 0 7.55959e-10 0 0 9.21156e-10 3.37893e-09 
0 0 0 0 6.82961e-10 0 0 0 0 
0 0 0 0 0 0 1.68989e-09 0 2.97117e-09 
2.72488e-09 0 0 0 0 0 0 0 0 
0 0 0 0 0 0 6.81456e-07 1.06556e-09 1.56255e-09 
0 0 4.06052e-09 2.54889e-09 0 0 0 0 0 
0 0 0 0 0 0 0 0 0 
0 0 0 0 0 0 0 0 0 
0 0 0 0 0 0 0 0 0 
0 0 0 5.324e-10 0 0 0 0 0 
0 0 0 0 0 0 0 1.85417e-09 0 
0 0 0 0 1.98195e-09 3.23004e-09 6.72043e-07 0 0 
0 0 1.2465e-09 0 0 0 0 0 0 
0 0 0 0 0 0 0 0 0 
0 0 0 0 0 0 3.76719e-09 0 1.07364e-09 
1.18401e-09 0 0 6.49836e-07 0 1.74236e-09 0 0 0 
3.58983e-09 0 0 0 0 2.3906e-09 0 0 0 
0 0 0 0 0 0 0 0 0 
0 0 0 0 0 0 0 0 0 
0 0 0 0 0 1.8548e-09 0 0 0 
5.96465e-10 0 0 0 0 0 0 0 0 
0 0 0 0 0 0 6.44404e-07 0 0 
0 0 0 0 0 0 0 0 3.1018e-09 
0 0 0 0 0 0 0 0 0 
0 0 0 0 0 0 0 0 0 
0 0 1.38578e-09 0 0 2.22997e-09 5.74175e-09 6.45123e-07 0 
0 0 0 0 8.68219e-09 0 0 0 0 
0 1.57477e-09 0 0 0 0 0 0 0 
0 4.57223e-10 0 0 0 0 0 0 0 
0 0 0 0 0 0 0 0 0 
0 0 0 0 0 0 6.40598e-07 4.32536e-09 1.66584e-09 
0 0 0 0 1.69701e-11 0 0 0 0 
0 0 0 0 0 1.09062e-09 2.13963e-09 0 0 
0 0 6.32773e-10 0 0 0 0 1.18363e-09 0 
2.56146e-09 0 0 7.54808e-10 0 0 1.45593e-09 6.71503e-07 0 
0 7.81515e-10 0 0 0 0 0 0 0 
0 0 0 0 0 0 0 2.64852e-09 0 
0 6.8399e-11 0 0 0 0 0 0 1.09018e-09 
0 0 0 4.05911e-09 0 0 0 6.55646e-07 0 
0 0 0 0 0 0 0 0 0 
0 0 0 0 0 0 0 0 0 
0 0 0 0 8.9098e-10 0 0 0 2.7412e-09 
0 0 0 0 0 0 0 0 0 
0 0 0 0 0 0 0 0 6.96492e-10 
0 1.35069e-09 6.53394e-10 5.75011e-10 0 0 0 0 0 
0 0 0 0 7.15981e-10 0 2.39128e-09 0 0 
0 0 0 0 0 0 0 0 0 
0 1.47725e-10 0 0 0 6.44417e-07 4.49945e-09 4.37705e-09 0 
0 0 0 0 0 9.92799e-10 0 0 0 
3.70296e-09 0 6.52182e-07 3.10511e-09 0 1.81258e-09 0 1.56462e-09 0 
0 0 0 0 0 0 0 0 0 
0 0 0 0 0 0 0 0 0 
0 0 0 0 0 0 0 0 0 
1.80926e-09 0 0 0 0 0 0 0 0 
0 0 2.9907e-10 0 6.59695e-10 0 0 0 0 
1.30948e-09 0 8.58811e-10 0 0 0 0 0 0 
0 0 0 5.84172e-10 0 0 0 0 0 
0 0 0 9.75985e-07 9.04682e-07 0 0 4.55515e-10 0 
0 0 0 0 0 0 0 0 0 
1.0589e-09 0 0 1.54851e-10 0 0 6.00654e-10 0 0 
0 0 1.19351e-09 0 0 0 0 0 0 
0 0 0 0 0 0 0 0 0 
0 0 0 0 0 0 0 0 0 
0 0 0 0 0 0 0 0 2.49986e-09 
8.86934e-10 0 0 0 0 0 0 0 0 
0 0 0 0 0 0 0 0 0 
0 3.59296e-10 0 0 0 0 0 7.22299e-10 3.56847e-10 
6.13969e-10 0 7.06268e-11 0 0 0 0 0 0 
0 0 0 8.22112e-07 0 0 7.40489e-09 0 0 
0 0 0 0 0 0 0 0 4.79301e-12 
0 0 0 0 0 0 0 0 0 
3.05415e-09 0 1.76122e-09 0 0 0 1.33826e-09 0 0 
0 0 1.98384e-09 0 0 0 0 0 0 
0 0 0 0 0 0 0 0 0 
0 0 0 0 0 0 0 0 0 
0 0 0 0 0 0 0 0 0 
8.67574e-10 0 0 0 0 0 2.1735e-09 0 3.26255e-10 
0 0 0 2.57583e-10 0 0 4.20768e-09 6.42753e-07 0 
0 0 0 0 1.75315e-09 0 0 0 0 
6.64836e-07 0 3.87286e-09 0 0 0 0 0 0 
0 0 0 0 0 0 0 0 0 
3.05383e-11 0 5.20922e-10 6.08707e-10 0 0 0 0 5.17273e-09 
6.61031e-07 0 0 1.04951e-09 0 0 8.71e-12 0 0 
2.0482e-09 6.51995e-07 0 0 0 0 0 0 0 
0 0 0 0 0 0 0 0 0 
0 0 0 0 0 0 0 0 0 
0 0 0 6.1652e-09 0 0 0 0 0 
0 0 0 0 0 6.23799e-09 6.72734e-07 0 0 
5.24415e-10 0 0 0 0 0 0 0 0 
2.55716e-09 0 0 0 0 0 2.65626e-10 1.73049e-09 0 
0 5.73783e-09 0 0 0 0 0 3.68375e-09 0 
0 7.68852e-10 0 0 0 0 0 0 0 
0 0 0 0 0 0 0 0 0 
0 0 0 2.72829e-09 0 0 0 0 1.95747e-09 
0 1.11011e-08 0 0 0 0 0 0 0 
0 0 0 0 0 0 0 0 0 
0 0 0 0 0 0 0 0 0 
0 0 0 6.40629e-07 0 0 0 0 0 
0 0 0 0 6.73702e-07 0 0 0 0 
0 0 0 0 0 0 0 3.73807e-09 0 
2.27355e-09 0 0 0 0 0 1.1752e-09 0 6.51855e-07 
4.56382e-09 3.39806e-09 0 0 0 0 0 1.7549e-09 0 
0 0 0 0 0 0 0 0 0 
0 0 0 0 0 0 0 0 2.18353e-09 
0 0 0 0 0 0 0 0 0 
0 0 2.46347e-09 0 0 0 0 0 0 
0 0 0 0 0 0 0 0 0 
0 0 0 0 0 0 0 0 0 
0 0 0 0 1.86536e-09 0 0 0 0 
0 0 0 8.13183e-10 0 0 1.3428e-09 0 0 
0 2.03766e-09 0 0 0 0 3.71421e-09 0 0 
2.37782e-09 0 9.64551e-10 0 0 0 0 0 0 
0 2.25768e-09 1.31757e-09 0 0 0 0 0 1.12354e-09 
0 0 1.67004e-09 6.63245e-07 5.18267e-09 0 0 0 0 
0 0 0 0 0 0 0 0 0 
0 0 0 0 0 1.49492e-09 0 2.15169e-09 0 
6.47819e-07 0 0 0 1.76798e-09 0 0 0 0 
0 0 0 0 0 0 0 0 0 
0 0 0 0 0 0 0 0 0 
0 0 0 7.48187e-10 0 7.59048e-10 0 0 1.02722e-09 
4.64319e-10 7.14616e-10 0 3.16891e-09 0 0 0 0 0 
2.33765e-09 2.49644e-09 7.30959e-07 3.59608e-09 0 3.38954e-09 0 6.57979e-07 2.52049e-09 
0 0 0 4.32896e-10 1.42237e-09 2.35505e-09 1.29401e-09 0 0 
0 2.15933e-09 0 4.90564e-10 0 0 0 0 0 
0 0 0 0 0 0 0 0 0 
0 0 0 0 0 0 0 0 3.94149e-10 
0 0 0 9.72859e-07 1.07377e-06 0 0 0 0 
0 0 0 0 5.05745e-10 0 0 0 0 
0 0 0 0 0 0 0 0 0 
0 0 0 0 0 0 0 0 0 
0 0 0 0 0 0 0 0 0 
0 0 0 0 0 7.01619e-07 2.25767e-09 0 1.93217e-09 
0 0 4.31704e-09 1.35575e-09 0 0 0 0 1.94742e-09 
2.50233e-09 0 0 0 0 6.66588e-07 1.78719e-09 1.4331e-09 1.63702e-09 
0 0 0 0 0 0 0 0 0 
0 0 0 0 0 0 3.9249e-09 0 0 
0 0 0 0 0 0 0 0 0 
0 0 0 0 0 9.76706e-07 0 0 4.12827e-09 
1.65421e-09 0 0 0 0 1.33352e-09 0 0 7.59217e-07 
0 0 1.51038e-09 3.97565e-10 0 0 0 0 0 
0 0 0 0 0 0 0 0 0 
0 0 0 0 0 0 0 0 0 
0 0 0 0 0 0 0 0 0 
0 2.39709e-09 0 0 7.36563e-07 0 2.01512e-09 0 2.94237e-09 
8.31365e-10 0 0 4.00322e-09 0 0 0 0 0 
2.45578e-09 0 0 3.92045e-10 0 7.88451e-10 0 8.15723e-10 0 
0 0 0 0 0 0 0 6.74758e-07 0 
0 1.96634e-09 0 0 0 0 0 0 0 
0 0 0 1.48413e-09 0 0 0 0 0 
0 3.95834e-09 0 0 0 0 0 0 0 
0 7.62863e-07 0 0 0 0 0 0 0 
0 0 0 0 0 0 0 0 0 
0 0 0 0 0 0 0 0 0 
1.17731e-10 0 6.11575e-10 0 0 6.50022e-09 6.90575e-07 3.29554e-09 0 
1.63502e-09 0 0 2.26975e-09 0 0 4.01651e-10 0 1.5972e-09 
0 0 3.98209e-09 6.59126e-07 1.10544e-09 1.1918e-09 0 0 0 
0 1.91737e-11 1.3299e-09 0 1.5741e-09 0 7.77562e-10 0 0 
0 0 2.41857e-09 7.57017e-07 8.28144e-09 0 7.9147e-10 0 0 
0 0 7.60019e-09 0 0 0 0 0 3.51983e-10 
0 5.08888e-10 1.36265e-09 0 0 0 9.67189e-10 4.44846e-09 8.89843e-10 
0 6.62559e-07 3.26297e-09 2.0993e-09 0 1.41507e-09 0 0 0 
0 0 0 3.00064e-09 0 0 0 0 0 
0 0 0 0 0 0 0 0 0 
0 0 0 0 0 0 0 0 0 
0 0 0 0 0 0 2.99159e-09 0 0 
0 0 0 8.04732e-10 0 0 4.44671e-10 0 3.12905e-09 
0 0 0 0 0 9.98762e-09 0 1.34497e-09 0 
6.66845e-07 0 2.07508e-09 0 0 2.87031e-09 0 0 0 
0 0 0 0 0 7.5893e-07 0 1.66947e-09 0 
0 0 0 4.40746e-09 0 0 0 0 0 
0 0 0 0 0 1.16704e-10 2.00707e-09 2.54624e-10 0 
0 2.84251e-09 0 0 0 0 0 0 0 
1.37711e-10 0 0 0 2.78882e-09 0 0 0 0 
0 0 0 0 0 0 0 0 0 
0 0 0 0 0 0 0 0 0 
0 0 0 0 0 0 0 0 0 
0 1.40047e-09 0 2.34197e-10 4.69064e-10 0 0 0 6.68704e-07 
0 0 1.64305e-09 0 0 0 0 4.10037e-09 0 
0 0 6.01799e-10 2.78865e-09 0 0 6.56812e-07 0 0 
0 0 0 1.75361e-09 0 0 0 0 0 
0 0 0 0 9.26048e-07 9.53984e-07 1.80282e-09 0 0 
0 0 0 6.66406e-10 6.50995e-07 0 0 0 0 
0 0 2.97831e-09 0 0 0 0 0 0 
0 0 5.49222e-09 0 0 0 0 0 0 
0 0 0 0 0 0 0 0 0 
0 0 0 0 0 0 0 0 0 
0 0 0 0 0 0 0 0 0 
0 0 0 4.5836e-10 0 0 0 0 0 
0 0 0 0 0 0 0 0 0 
0 0 0 0 0 8.91937e-10 0 0 0 
1.70728e-09 1.42602e-09 0 0 0 0 1.98479e-09 0 1.12457e-09 
0 0 0 0 0 0 0 0 0 
0 0 0 0 0 4.2297e-09 2.93122e-09 0 0 
1.56488e-09 0 0 0 0 1.59639e-10 0 4.67646e-10 0 
3.8846e-09 0 0 5.08992e-09 8.14748e-07 0 0 0 0 
0 0 0 0 0 0 0 0 0 
0 0 0 0 0 0 0 0 0 
0 0 0 0 2.15076e-10 0 0 0 0 
0 0 0 0 0 0 0 9.54697e-10 0 
0 0 0 1.10228e-09 0 0 0 0 0 
0 0 0 0 0 3.44565e-09 3.2326e-09 0 2.67824e-09 
0 1.56264e-09 1.32194e-09 0 0 0 0 0 0 
0 0 0 0 0 0 0 9.92275e-07 9.86655e-09 
0 0 0 0 2.47472e-09 0 0 0 2.50501e-09 
7.45e-10 0 0 2.2061e-09 0 0 0 0 0 
0 0 4.03006e-09 0 9.73049e-07 0 0 0 1.07644e-09 
0 0 0 0 0 0 0 0 0 
0 0 0 0 0 0 0 0 0 
0 0 0 0 0 0 0 0 1.75424e-09 
5.03753e-09 0 0 0 4.87375e-10 0 0 0 6.46925e-07 
4.51323e-09 4.73652e-10 0 1.99367e-09 0 0 1.94376e-09 0 0 
0 0 0 0 0 1.13053e-09 0 6.66443e-07 0 
0 0 0 3.22065e-10 0 0 0 0 0 
9.43459e-10 0 0 0 2.39258e-09 0 0 0 9.31395e-07 
0 0 0 0 7.39919e-07 0 0 0 0 
0 0 0 0 0 0 0 1.88277e-09 2.90657e-09 
0 6.7192e-07 1.51012e-09 3.74436e-10 0 9.10166e-07 0 0 6.82643e-10 
1.19837e-09 0 0 0 0 0 0 0 0 
0 0 0 0 0 0 0 0 0 
0 0 0 0 0 0 0 0 0 
0 0 0 7.4092e-10 0 0 0 0 0 
2.96659e-09 1.93418e-09 0 1.03143e-09 0 0 1.49007e-09 0 0 
0 0 0 0 0 0 0 0 1.11947e-09 
0 1.32009e-09 2.60662e-09 0 0 2.46574e-09 0 0 0 
1.11995e-09 0 0 2.03184e-09 0 8.24719e-10 1.5034e-09 0 0 
6.17605e-09 0 0 9.39409e-07 0 1.25997e-09 0 3.69846e-09 0 
9.53559e-10 4.49717e-09 0 2.23025e-09 3.03879e-09 0 6.60387e-07 0 0 
2.20975e-09 0 3.93189e-09 1.64527e-09 3.52047e-09 0 0 0 0 
0 0 0 0 0 0 0 0 0 
0 0 0 0 0 0 0 0 0 
0 0 0 0 0 0 0 0 0 
0 6.16284e-09 6.71957e-07 5.51865e-09 0 4.6324e-10 0 0 0 
2.35904e-10 6.56336e-10 1.66189e-09 8.40633e-10 0 0 0 0 6.47479e-07 
0 0 0 0 0 0 0 0 0 
0 0 6.7197e-09 0 0 4.07558e-09 0 1.22928e-09 0 
0 1.54289e-09 0 0 0 9.90751e-10 0 2.11452e-11 0 
0 0 1.43746e-09 0 9.04158e-07 0 0 4.20888e-09 0 
6.90783e-07 0 1.34878e-09 6.80789e-07 4.27523e-09 0 0 4.97858e-09 2.74736e-09 
0 2.29683e-09 0 0 0 0 0 0 1.99787e-09 
1.7495e-09 8.92102e-10 0 0 0 0 0 0 0 
0 0 0 0 0 0 0 0 0 
0 0 0 0 0 0 0 0 0 
0 0 0 0 0 6.75358e-10 1.16796e-10 0 0 
0 0 0 0 0 0 0 0 0 
1.19349e-09 0 0 0 4.93527e-10 0 0 0 0 
1.41098e-09 0 0 0 0 0 7.58199e-07 0 0 
0 1.39636e-09 0 0 0 0 0 0 0 
0 0 0 0 0 0 0 1.19668e-09 0 
0 6.66127e-10 0 9.67836e-10 4.43775e-09 0 5.91712e-09 0 0 
0 0 0 0 0 5.2598e-09 4.11347e-09 0 9.53683e-10 
0 0 0 0 0 0 0 0 0 
0 0 0 0 0 0 0 0 0 
0 0 0 0 0 0 0 0 0 
0 0 0 0 0 3.77338e-09 0 0 0 
3.82868e-10 0 3.08555e-09 0 0 0 4.6164e-11 0 1.1468e-09 
0 0 0 0 0 0 0 0 0 
4.20147e-10 0 0 1.44328e-09 0 0 0 0 2.79322e-09 
3.14739e-09 0 0 0 6.74267e-07 0 0 0 0 
0 0 1.43855e-09 0 0 0 0 0 0 
0 0 5.54664e-10 0 0 0 0 2.3338e-09 0 
9.43765e-10 0 4.16354e-09 0 0 7.7173e-07 0 0 0 
0 0 0 0 0 0 0 0 0 
0 0 0 0 0 0 0 0 0 
0 0 0 0 0 0 0 1.43193e-10 0 
9.49917e-10 0 0 8.68111e-07 8.84643e-07 0 0 0 0 
0 0 0 6.472e-09 0 0 0 0 3.16753e-10 
7.95582e-10 0 0 1.92334e-09 0 0 0 0 0 
0 0 0 0 0 0 0 8.66592e-07 1.17508e-09 
0 0 0 0 4.88311e-09 0 0 0 6.69397e-07 
0 0 0 0 6.55774e-07 0 0 0 0 
3.77112e-10 0 0 2.57978e-09 0 0 0 0 0 
0 0 6.78665e-07 0 0 0 0 7.60105e-07 0 
0 0 3.50553e-10 0 0 0 0 0 0 
0 0 0 0 0 0 0 0 0 
0 0 0 0 0 0 0 0 0 
0 1.53059e-09 0 0 0 0 5.56929e-09 0 0 
1.76386e-09 0 0 0 0 6.40937e-07 7.46594e-09 3.27347e-09 0 
0 9.25148e-10 0 1.91565e-09 6.4693e-07 0 1.71342e-09 0 0 
3.06177e-10 0 0 0 0 0 0 0 0 
0 0 0 0 4.67436e-09 6.76969e-10 0 0 7.31058e-10 
0 5.58607e-09 0 0 0 0 0 1.09668e-09 0 
1.81588e-09 0 6.54244e-07 0 0 0 2.45846e-09 0 0 
6.78383e-07 0 0 2.74584e-09 0 1.43563e-09 0 0 0 
0 0 0 0 0 0 0 0 0 
0 0 0 0 0 0 0 0 0 
0 0 0 0 0 0 0 0 0 
0 0 6.83767e-10 0 1.88382e-09 0 0 0 0 
0 0 1.46587e-09 0 0 0 1.69501e-09 0 0 
0 0 0 0 0 3.13446e-09 0 0 0 
0 4.58855e-10 0 0 0 0 0 9.80925e-07 1.14325e-06 
1.03674e-06 0 0 1.84735e-09 7.65528e-07 0 0 3.20502e-09 0 
0 0 0 0 0 0 0 0 0 
0 0 2.03811e-09 2.42971e-09 0 1.0409e-09 3.42229e-09 0 0 
1.22768e-09 0 0 0 0 0 0 1.64065e-09 0 
3.04582e-09 0 0 0 0 0 0 0 0 
0 0 0 0 0 0 0 0 0 
0 0 0 0 0 0 0 0 0 
0 0 0 0 0 3.14921e-09 0 0 7.27826e-09 
8.67079e-07 0 0 0 0 0 0 0 0 
0 0 0 0 0 0 0 0 1.05531e-09 
0 0 0 0 0 0 0 0 0 
2.21983e-09 0 0 0 0 0 5.9227e-09 7.27002e-07 0 
0 3.9159e-09 0 0 0 5.75727e-10 0 0 0 
0 1.00323e-09 0 0 0 0 0 0 6.57716e-07 
0 0 0 0 4.67497e-10 0 0 5.32898e-10 0 
0 0 0 0 0 0 0 0 0 
0 0 0 0 0 0 0 0 0 
0 0 0 0 0 0 0 0 0 
0 0 0 0 0 0 0 0 0 
0 8.572e-07 0 6.52021e-10 0 0 0 0 0 
0 0 0 0 0 0 9.15642e-10 0 1.07576e-09 
0 0 0 0 0 0 1.0394e-09 0 0 
0 1.70008e-09 0 2.39459e-09 0 7.32722e-07 0 0 4.16404e-09 
0 0 0 0 4.21135e-10 0 0 0 0 
4.46202e-10 0 0 0 0 0 0 0 0 
0 0 2.09632e-09 0 0 0 0 0 0 
0 0 0 4.29873e-10 0 0 0 0 0 
0 0 0 0 0 0 0 0 0 
0 0 0 0 0 0 0 0 0 
0 0 0 0 0 0 0 0 0 
0 0 1.81678e-08 0 2.49529e-09 0 0 0 0 
0 0 0 0 0 0 0 0 0 
0 0 0 0 0 1.30109e-09 0 2.58399e-09 0 
4.36492e-09 7.03546e-07 2.88516e-09 0 0 0 6.76173e-09 3.9752e-09 5.91116e-09 
0 0 0 0 8.58109e-07 0 0 0 0 
0 0 0 0 0 0 0 0 0 
0 0 1.50686e-09 7.07739e-10 0 2.25666e-09 2.2649e-09 0 0 
1.25792e-09 0 0 0 0 0 0 0 0 
0 0 0 0 0 0 0 0 0 
0 0 0 0 0 0 0 0 0 
0 0 0 0 0 0 0 0 0 
0 0 1.93818e-09 4.2652e-10 0 0 0 0 0 
0 3.7263e-10 0 0 0 0 0 0 0 
2.25936e-10 0 0 0 0 3.15548e-09 0 5.78988e-09 1.22506e-09 
0 0 2.01195e-09 0 9.11253e-10 1.76272e-09 0 1.89821e-09 0 
1.27692e-09 0 0 0 2.58748e-09 8.54069e-07 0 3.93833e-09 1.9421e-09 
0 0 0 0 0 0 0 0 0 
0 0 0 0 5.51502e-10 5.77738e-10 0 0 2.29978e-09 
0 0 0 0 0 0 0 0 0 
0 0 0 0 0 0 0 0 0 
0 0 0 0 0 0 0 0 0 
0 0 0 0 0 0 0 4.07775e-09 0 
0 0 6.89033e-10 1.04108e-09 0 0 0 0 0 
0 3.97956e-10 0 0 0 0 0 0 0 
0 0 0 0 0 0 1.15618e-09 3.35054e-09 0 
0 0 0 1.70512e-09 0 0 0 0 0 
6.73103e-10 0 0 0 0 0 0 0 0 
0 0 0 0 0 8.78501e-10 0 0 0 
0 0 0 0 0 0 1.48691e-09 0 6.48178e-07 
0 1.66622e-09 0 0 0 0 0 0 0 
0 0 0 0 0 0 0 0 0 
0 0 0 0 0 0 0 0 0 
0 0 0 0 0 0 0 8.02714e-10 6.40178e-07 
0 0 1.16109e-09 0 0 0 2.24403e-10 0 1.25278e-09 
7.87086e-10 0 0 0 0 0 0 0 0 
0 0 0 0 4.82093e-10 0 0 0 7.02245e-10 
0 0 0 0 0 0 0 0 0 
0 0 0 0 0 1.50702e-09 0 5.12265e-09 0 
1.75877e-09 0 1.09151e-10 0 4.25902e-09 0 0 0 0 
0 0 0 0 0 0 0 0 3.06154e-09 
2.15754e-09 0 0 0 0 0 0 0 0 
0 0 0 0 0 0 0 0 0 
0 0 0 0 0 0 0 0 0 
0 0 0 0 0 0 0 0 2.25376e-09 
1.76818e-09 0 7.3588e-10 8.16389e-10 0 0 9.78474e-10 0 0 
0 0 0 0 0 0 0 0 0 
0 0 0 0 7.8074e-10 0 0 0 1.37868e-09 
0 0 0 0 0 0 0 0 0 
0 0 0 0 0 0 0 0 0 
0 0 2.82219e-09 0 1.4679e-09 6.77088e-07 0 0 0 
0 0 0 0 0 0 0 0 0 
0 0 0 0 0 0 0 1.30082e-09 0 
0 0 0 0 0 0 0 0 0 
0 0 0 0 0 0 0 0 0 
0 0 0 0 0 0 0 0 0 
0 2.07766e-09 1.94116e-09 0 0 0 0 2.89741e-09 6.54257e-07 
4.65464e-09 0 0 1.95024e-09 0 0 0 0 0 
1.11714e-10 0 0 0 0 6.61747e-10 0 0 0 
0 0 0 0 0 0 0 0 0 
0 0 0 0 0 0 0 0 0 
0 0 2.49941e-09 0 0 0 0 0 3.42575e-09 
0 0 5.32036e-10 0 0 0 0 0 0 
1.06468e-09 0 0 0 0 0 0 0 0 
0 0 0 7.2587e-10 1.38813e-10 0 0 0 0 
0 0 0 0 0 0 0 0 0 
0 0 0 0 0 0 0 0 0 
0 0 0 0 0 0 0 0 0 
0 0 4.27311e-09 1.86033e-10 6.67878e-07 0 0 1.56377e-09 0 
0 0 0 0 0 0 0 0 0 
0 0 0 0 1.08662e-09 0 0 2.55784e-09 0 
0 0 0 0 0 4.11372e-10 0 0 0 
0 9.41318e-10 0 0 5.52111e-09 0 6.24073e-09 0 0 
4.62709e-09 6.56908e-10 0 0 0 0 0 0 0 
3.18513e-10 3.30211e-10 2.04378e-09 0 6.48101e-07 4.24876e-09 0 0 3.10402e-09 
0 1.95903e-09 0 0 0 0 0 0 0 
0 0 0 0 0 0 0 0 0 
0 0 0 0 0 0 0 0 0 
0 0 0 0 0 0 0 0 0 
0 0 0 0 0 0 0 0 0 
0 0 0 9.91566e-10 3.20591e-09 0 0 2.41604e-09 0 
2.39166e-09 0 0 0 0 0 3.00291e-09 6.41574e-07 0 
4.6814e-09 0 0 0 0 0 0 0 0 
6.42812e-07 4.84646e-09 0 1.63567e-09 0 0 0 0 0 
9.28384e-09 6.58058e-07 0 2.5138e-09 0 0 0 0 0 
0 0 1.08425e-09 0 0 1.48607e-09 0 0 0 
0 0 8.49853e-07 0 0 0 0 0 0 
0 0 0 0 0 0 0 0 0 
0 0 0 0 0 0 0 0 0 
0 0 0 0 0 0 0 0 0 
0 0 0 0 0 0 4.78185e-09 0 0 
1.63778e-09 3.05734e-10 0 0 6.06989e-10 0 6.65482e-07 0 3.91052e-09 
0 0 0 0 0 0 2.11026e-09 6.29346e-10 0 
0 0 0 0 2.0405e-10 0 0 0 0 
0 0 1.94791e-09 0 0 0 0 0 0 
0 0 1.83663e-09 2.64933e-09 0 0 0 0 0 
0 0 0 0 0 0 0 0 1.33776e-09 
9.17614e-10 2.7004e-09 0 8.49636e-07 5.42992e-09 0 0 0 0 
0 0 0 0 0 0 0 0 0 
0 0 0 0 0 0 0 0 0 
0 0 0 0 0 0 0 0 1.2179e-09 
0 2.12491e-09 0 0 0 0 6.88884e-07 2.65718e-09 0 
1.09354e-09 1.39001e-09 0 0 0 0 0 0 0 
0 0 0 8.0605e-07 1.0798e-09 0 0 0 0 
0 6.09755e-10 0 0 0 0 0 4.87004e-10 0 
2.35802e-09 0 0 0 0 0 0 0 0 
1.25555e-09 0 0 0 0 0 0 0 0 
0 0 0 0 0 0 0 0 0 
0 0 0 0 0 0 1.39793e-09 6.34996e-10 0 
0 0 0 0 0 0 0 0 0 
0 0 0 0 0 0 0 0 0 
0 0 0 0 0 0 3.52997e-09 1.34185e-09 0 
0 0 0 3.02187e-09 0 0 0 0 3.26458e-09 
0 0 0 0 0 0 0 0 0 
0 0 7.2877e-07 0 2.75201e-09 7.80249e-07 9.47785e-09 0 0 
1.7375e-09 1.11503e-09 0 0 0 0 0 0 0 
0 0 0 0 0 0 0 0 0 
0 0 0 0 0 0 0 0 0 
0 0 0 0 0 0 0 0 0 
0 0 0 0 0 0 2.0943e-09 2.56234e-09 0 
0 0 0 0 0 0 0 0 0 
0 0 0 0 0 0 0 0 0 
0 0 0 0 0 0 0 6.4333e-07 0 
0 0 0 0 8.73284e-07 4.01319e-09 0 0 0 
0 0 0 0 0 0 0 6.55433e-07 1.91431e-09 
0 0 3.47192e-09 7.77894e-09 0 0 0 0 3.80248e-09 
0 0 0 0 0 0 0 6.37771e-10 0 
0 0 0 0 9.09195e-10 0 0 0 0 
0 0 0 0 0 0 0 0 0 
0 0 0 0 0 0 0 0 0 
0 0 0 0 0 0 2.85702e-10 7.7504e-10 0 