# vtk DataFile Version 5.1
vtk output
ASCII
DATASET STRUCTURED_POINTS
DIMENSIONS 250 250 1
SPACING 1 1 1
ORIGIN 0 0 0
POINT_DATA 62500
FIELD FieldData 6
feature_1 1 62500 float
0 0 0 0 0 0 0 0 0 
0 0 0 0 0 0 0 0 0 
0 0 0 0 0 0 0 0 2.24182e-14 
0 0 0 0 0 0 1.83108e-15 0 0 
0 2.53749e-14 0 0 0 1.53556e-14 0 0 0 
0 4.81002e-14 0 0 0 0 0 0 0 
0 0 0 0 0 0 0 0 0 
0 0 0 0 0 0 0 0 0 
0 0 0 0 0 0 0 0 0 
0 0 0 0 0 0 0 0 0 
0 0 0 0 0 0 0 0 0 
0 0 0 0 0 0 0 0 0 
0 0 4.37716e-14 0 0 0 0 0 0 
0 0 0 0 0 0 0 0 0 
0 0 0 0 0 0 0 0 0 
0 0 1.23286e-14 0 0 0 0 0 0 
0 0 0 0 0 0 0 0 5.60735e-14 
0 0 0 0 0 0 0 0 0 
0 0 0 0 0 0 0 0 0 
0 6.52141e-14 0 0 0 0 0 0 0 
0 0 0 0 0 0 0 0 0 
0 0 0 0 0 0 5.9047e-15 4.66496e-14 0 
1.68431e-14 0 0 0 0 0 0 0 4.9581e-14 
0 0 0 0 0 0 0 0 0 
0 0 0 0 0 0 0 0 0 
0 0 0 0 0 0 0 6.88299e-14 0 
0 1.78559e-14 0 0 0 0 0 0 0 
0 1.57032e-14 0 0 0 0 0 0 0 
0 0 0 0 0 0 0 0 0 
0 0 0 0 0 0 0 0 0 
0 0 0 0 0 0 0 0 0 
0 0 0 0 0 0 0 0 0 
0 0 0 0 0 0 0 1.30635e-15 0 
0 0 0 0 3.3052e-14 0 0 0 0 
0 0 0 0 0 0 0 0 0 
6.96357e-15 0 0 0 0 0 0 0 0 
0 0 0 0 0 0 0 0 0 
0 0 0 0 0 0 0 0 0 
8.29474e-14 0 0 0 0 0 0 0 0 
0 0 0 0 0 0 0 0 0 
0 0 0 0 0 0 0 0 0 
0 0 0 0 0 0 0 0 0 
0 0 0 0 0 0 0 2.80255e-14 0 
0 0 0 0 0 0 0 0 0 
0 0 0 0 0 0 0 0 0 
0 0 0 0 0 0 0 0 0 
0 0 0 0 0 0 0 0 0 
0 0 0 0 0 0 0 0 0 
0 7.54008e-15 0 0 0 0 0 0 0 
0 0 0 0 0 0 0 0 0 
0 0 0 0 1.13288e-13 0 0 0 0 
0 0 0 0 0 0 0 0 0 
0 0 5.62401e-14 0 0 0 0 0 0 
0 0 0 0 0 0 0 0 0 
0 0 0 0 0 0 0 0 0 
0 0 0 0 0 0 0 0 0 
0 0 0 0 0 0 0 0 0 
0 0 0 1.10822e-14 0 0 0 0 0 
0 0 0 0 0 0 0 0 0 
0 0 0 0 0 1.55545e-14 0 0 0 
0 0 0 0 0 0 0 0 0 
0 0 0 0 0 4.21734e-14 0 0 0 
0 0 0 0 0 0 0 0 7.59782e-14 
0 0 0 0 0 0 0 0 0 
0 0 0 0 0 0 0 0 6.68762e-14 
0 0 0 0 0 0 0 0 0 
0 0 0 0 0 0 0 0 0 
0 0 0 0 0 4.21816e-14 0 0 0 
0 0 0 0 0 4.83825e-14 0 0 0 
0 0 0 0 0 0 0 0 0 
0 0 0 0 0 0 0 0 0 
0 0 0 0 0 0 0 0 0 
0 0 0 0 0 0 0 0 0 
0 0 0 0 0 0 0 0 0 
0 0 0 0 0 4.29534e-14 0 0 0 
0 0 0 0 0 0 0 0 0 
0 0 0 0 0 0 0 0 0 
0 4.24335e-14 0 0 0 0 0 0 0 
0 0 0 0 0 0 0 1.61381e-14 0 
0 0 0 0 0 0 0 1.17295e-14 0 
0 0 0 0 0 0 0 0 0 
0 0 0 0 0 0 0 0 0 
0 0 0 0 0 0 0 0 0 
0 0 0 0 0 0 0 0 0 
0 0 0 0 0 0 9.02661e-14 0 0 
0 0 0 0 0 0 0 5.28695e-14 0 
0 0 0 0 0 0 3.61233e-15 0 0 
0 0 0 0 0 0 0 0 0 
0 0 0 0 0 0 0 0 0 
0 0 0 0 0 3.91398e-14 6.1221e-14 0 0 
0 0 0 0 0 0 0 0 0 
0 0 0 0 0 0 0 0 0 
0 0 0 0 0 0 0 0 0 
3.14373e-14 0 0 0 0 0 0 0 0 
0 0 0 0 0 0 0 5.3437e-15 0 
0 0 0 0 0 0 0 0 0 
0 0 1.05154e-13 0 0 0 0 0 0 
0 1.04536e-14 0 0 0 0 0 0 0 
0 0 0 0 4.5973e-14 0 2.40862e-15 1.84976e-14 0 
0 0 0 0 0 0 0 0 0 
0 0 0 0 0 0 0 0 0 
0 0 0 0 0 0 0 0 0 
0 0 0 0 0 0 0 0 2.80553e-14 
0 0 0 0 0 0 0 0 0 
0 0 0 0 0 0 0 0 0 
0 0 0 0 0 0 0 0 0 
0 0 0 0 0 0 0 0 0 
0 0 0 0 0 0 0 0 0 
0 0 0 0 0 0 0 0 0 
0 0 0 0 0 0 0 0 0 
0 0 0 0 0 0 0 0 0 
2.62208e-14 6.67674e-14 0 0 0 0 0 0 0 
0 0 0 0 0 0 0 0 0 
0 0 0 0 0 0 0 0 0 
0 4.94429e-14 0 0 0 0 0 0 0 
0 0 0 0 0 0 0 0 0 
0 0 0 0 0 0 0 0 0 
0 0 0 0 0 0 0 0 0 
0 0 0 0 0 0 0 0 0 
0 0 0 0 0 0 0 0 0 
0 0 0 0 0 0 0 0 0 
0 0 0 0 0 0 0 0 0 
0 0 0 0 0 0 0 0 0 
0 0 0 0 0 0 0 0 0 
0 0 0 0 0 0 0 0 0 
0 0 0 0 0 0 0 0 0 
3.3624e-14 0 0 0 0 0 0 0 0 
0 0 0 0 0 0 8.23503e-14 0 0 
0 0 4.61188e-14 0 0 0 0 0 0 
0 0 0 0 0 0 0 0 0 
0 0 0 0 0 0 0 0 0 
0 0 0 0 0 0 0 0 0 
0 0 3.14558e-14 0 0 0 0 7.18765e-14 0 
0 0 0 0 0 0 0 0 0 
0 0 0 0 0 0 0 0 0 
0 0 0 0 0 0 0 0 0 
0 0 0 0 0 0 0 0 0 
0 0 0 0 0 0 0 0 0 
0 0 0 0 2.56101e-14 4.61786e-14 0 0 0 
0 0 0 0 0 0 0 0 0 
0 0 0 0 0 0 0 0 0 
0 6.2101e-14 0 0 0 0 0 0 0 
0 0 0 0 0 0 0 4.9475e-14 0 
0 0 0 0 0 0 0 0 0 
0 0 0 0 0 0 0 0 0 
0 0 0 0 0 0 0 0 0 
0 0 0 0 0 0 0 0 0 
0 0 0 0 0 0 0 0 0 
0 0 4.59615e-14 0 0 0 0 0 0 
0 0 0 2.73724e-14 0 0 0 0 0 
0 0 0 0 2.71617e-14 2.02462e-14 0 0 0 
0 0 0 0 0 0 0 0 0 
0 0 0 0 0 0 0 5.20895e-14 0 
0 0 0 0 0 0 0 0 0 
0 0 0 0 0 0 0 0 4.96072e-14 
0 0 0 0 0 0 0 0 0 
0 0 0 0 0 0 0 0 0 
0 0 0 0 0 0 0 0 2.77971e-14 
0 0 0 0 0 0 0 0 0 
0 0 0 0 0 0 0 0 0 
0 0 0 0 0 0 0 0 0 
0 0 0 0 0 0 0 0 0 
0 0 3.93623e-14 0 0 0 0 0 0 
0 0 0 0 0 0 0 0 0 
0 0 0 0 0 0 0 0 0 
0 0 0 0 0 0 0 5.15946e-14 0 
0 0 0 0 0 0 0 0 0 
0 0 0 0 0 0 0 0 0 
0 0 0 0 0 0 0 0 0 
0 0 0 0 0 0 0 0 0 
0 0 0 0 0 0 0 0 0 
0 0 0 0 0 0 0 8.34078e-14 0 
0 0 0 0 0 0 0 0 0 
1.39854e-13 0 0 3.20378e-14 0 0 0 0 0 
0 0 0 0 0 0 0 0 0 
0 0 2.38845e-14 0 0 0 0 0 0 
0 0 0 0 0 0 0 0 0 
0 0 0 0 0 0 3.35973e-14 0 0 
0 0 0 0 0 0 0 0 0 
0 0 1.7607e-16 0 0 0 0 0 0 
0 0 0 2.22978e-17 0 0 7.0797e-14 0 0 
0 0 1.0795e-13 0 0 0 0 0 0 
0 0 0 0 0 0 0 1.20861e-15 0 
0 0 0 0 0 0 0 0 0 
0 0 0 0 0 0 0 0 0 
0 7.788e-15 0 0 0 0 0 0 0 
0 0 0 0 0 0 0 0 0 
0 0 0 0 0 0 0 0 0 
0 0 0 0 0 0 0 0 0 
0 0 6.48782e-15 0 0 4.29721e-14 0 0 0 
0 0 0 0 0 0 0 0 0 
0 0 0 0 0 0 0 9.36945e-15 0 
0 0 0 0 0 0 0 1.87283e-14 0 
1.11864e-14 0 0 0 0 0 0 0 0 
0 0 0 0 0 0 0 0 1.14993e-14 
0 0 0 0 0 0 0 0 0 
0 0 0 0 0 0 0 0 0 
0 0 0 0 0 0 0 0 0 
0 0 0 0 0 0 0 0 0 
0 0 0 0 0 0 0 0 0 
0 0 0 0 0 4.82012e-14 0 0 0 
0 0 0 0 0 0 0 0 0 
3.33997e-14 0 0 0 0 0 3.58638e-14 0 0 
0 0 0 0 0 0 0 0 0 
0 0 0 0 0 0 0 0 0 
0 0 3.72042e-14 0 4.93627e-14 0 0 0 7.79311e-14 
0 0 0 0 0 0 0 0 0 
0 0 0 0 0 0 0 0 0 
0 0 0 0 0 0 0 0 0 
0 0 0 0 0 0 0 0 4.67418e-14 
0 0 0 0 0 0 0 0 0 
0 0 0 0 0 0 0 6.69643e-14 0 
0 0 0 0 0 0 0 0 0 
0 0 0 0 0 0 0 0 0 
0 0 0 0 0 0 0 0 0 
0 0 0 0 2.45137e-14 0 0 0 0 
0 0 0 0 0 0 0 0 0 
0 0 0 8.45282e-14 0 0 0 0 0 
0 0 0 0 0 0 0 0 0 
0 0 0 0 0 0 0 0 0 
0 0 0 0 0 0 0 0 0 
0 0 0 4.71144e-14 0 0 0 0 0 
0 0 0 0 0 0 0 0 0 
0 0 0 0 0 0 0 0 0 
0 0 0 0 3.0548e-14 0 0 0 0 
0 0 1.1845e-13 0 0 0 0 0 0 
0 0 0 0 0 0 0 0 0 
0 0 0 0 0 0 0 0 0 
0 0 0 0 0 5.06992e-15 0 0 0 
0 0 0 0 0 9.17206e-14 0 3.65474e-14 0 
0 0 0 0 0 0 2.20631e-15 0 0 
0 0 0 0 0 0 0 0 0 
0 0 0 0 0 0 0 0 0 
3.34639e-14 0 0 0 0 0 0 5.55194e-14 6.01729e-14 
0 0 0 0 0 0 0 0 0 
0 0 0 0 0 0 0 0 0 
0 0 0 0 0 0 0 0 0 
0 0 0 0 0 0 0 0 0 
0 0 0 0 0 0 0 0 0 
0 0 0 0 0 0 0 0 0 
0 0 0 0 0 0 0 0 0 
0 0 0 0 0 0 0 0 0 
0 0 0 0 0 0 0 0 0 
0 0 0 0 4.97568e-14 0 0 0 0 
0 0 0 0 0 0 0 0 0 
0 0 0 0 0 5.12957e-14 0 0 0 
0 0 0 0 0 0 0 0 0 
0 0 0 0 0 0 0 0 0 
0 6.92608e-15 0 0 0 0 0 0 0 
0 0 0 0 0 0 0 0 0 
0 0 0 0 0 4.07839e-14 0 0 0 
0 0 0 0 0 0 0 0 0 
6.51007e-14 0 0 0 0 0 0 0 0 
0 0 0 0 0 1.32144e-14 0 0 0 
0 0 0 0 0 0 0 0 0 
0 0 0 0 0 0 0 0 0 
0 0 0 8.97782e-15 0 0 0 0 0 
0 0 0 0 0 0 0 0 0 
0 0 0 0 0 0 0 0 0 
0 0 0 0 0 0 0 0 0 
4.87933e-14 0 0 0 0 5.80244e-14 0 0 0 
0 0 0 0 0 0 0 0 0 
0 0 0 0 0 0 0 0 0 
0 0 0 0 3.1323e-14 3.07032e-14 0 0 0 
0 0 0 1.72403e-14 0 0 3.43665e-14 0 0 
0 0 2.76592e-14 0 0 0 0 0 0 
0 3.24739e-14 0 1.42809e-14 0 0 0 0 0 
0 0 0 0 1.25253e-15 0 0 0 0 
0 0 0 0 0 0 0 0 0 
0 0 1.26292e-14 0 0 0 0 0 0 
0 0 0 0 0 0 0 0 0 
0 0 0 0 0 0 0 0 3.59255e-14 
0 0 0 0 0 0 0 0 0 
0 0 0 0 0 0 0 0 0 
0 0 0 0 0 0 0 0 0 
0 0 3.98473e-14 0 3.14285e-16 0 0 0 0 
0 0 0 0 0 0 0 0 0 
0 0 0 0 0 0 0 0 0 
0 0 0 0 6.16272e-14 0 0 5.68884e-14 0 
0 0 0 0 0 0 0 0 0 
0 0 0 4.0105e-14 0 0 0 0 0 
0 0 0 0 0 0 0 0 0 
0 0 0 0 0 0 0 0 0 
0 0 0 0 0 0 0 0 0 
0 0 0 1.04846e-14 0 0 0 0 0 
0 0 0 0 0 0 0 2.00684e-13 8.60778e-15 
0 0 0 0 0 0 0 9.36953e-15 0 
0 0 0 0 0 0 0 0 0 
0 0 0 0 0 0 0 0 0 
1.7031e-13 1.20061e-14 0 0 0 0 0 0 0 
1.2666e-13 0 0 0 0 0 0 0 0 
0 0 6.04947e-15 0 0 0 0 0 0 
0 0 0 0 0 0 0 0 0 
0 0 0 0 0 0 0 0 0 
1.87083e-14 0 7.32054e-15 0 0 0 1.05584e-15 0 0 
0 0 0 0 0 0 0 0 0 
0 0 0 0 0 0 0 0 0 
0 0 0 0 0 0 0 0 0 
0 0 0 0 0 0 0 0 6.16764e-15 
0 0 0 0 0 0 0 0 0 
0 0 0 0 0 0 0 0 0 
0 0 0 0 0 0 0 8.24511e-14 0 
0 0 0 0 0 1.99201e-16 0 0 0 
0 0 0 0 0 0 0 0 0 
0 0 0 0 0 0 0 0 0 
0 0 0 0 0 0 0 0 8.6262e-14 
0 0 0 0 0 0 0 0 0 
0 0 0 0 0 0 0 0 0 
0 0 0 0 0 0 0 0 0 
0 0 0 0 0 0 0 0 0 
0 0 0 0 0 0 0 0 0 
0 0 0 0 5.66271e-14 0 0 0 0 
0 0 0 0 0 0 0 2.54582e-13 0 
0 0 0 0 0 0 0 0 0 
0 0 0 0 0 0 0 0 0 
0 0 0 0 0 0 0 0 0 
0 0 0 0 0 6.9758e-13 0 0 0 
0 0 0 0 0 0 0 0 0 
0 0 0 0 0 1.71945e-14 1.14162e-13 0 0 
0 0 0 0 0 0 0 6.13888e-14 0 
0 0 9.1691e-14 0 6.98532e-14 0 0 0 0 
0 2.94632e-14 0 0 0 0 0 0 0 
0 0 0 0 0 0 0 0 0 
0 0 0 0 3.4297e-14 0 0 0 0 
0 0 0 0 0 0 0 0 0 
2.34947e-14 0 0 0 0 0 0 0 0 
0 0 0 0 0 0 0 2.39596e-14 0 
0 0 0 0 0 0 0 0 0 
0 0 0 0 0 0 0 0 0 
0 0 0 0 0 0 0 0 0 
0 0 0 0 0 5.73819e-14 0 0 0 
0 0 5.57483e-14 0 0 0 0 0 0 
0 0 9.64853e-15 0 3.16495e-14 2.69018e-15 0 0 3.18856e-14 
0 0 0 0 0 0 0 0 0 
0 0 0 0 0 0 0 0 0 
0 0 0 0 4.08811e-14 0 0 2.55873e-14 0 
0 0 0 0 8.16532e-14 0 0 0 0 
0 0 0 0 0 0 0 0 2.49119e-13 
0 0 0 0 0 0 0 8.52622e-14 0 
0 0 2.4741e-13 0 0 0 0 0 0 
0 0 3.69876e-13 2.91185e-13 0 0 8.51446e-16 0 0 
0 0 0 0 0 0 0 0 0 
0 0 0 0 0 0 0 0 2.08894e-14 
0 0 0 5.57789e-13 0 0 0 0 0 
0 0 0 0 0 0 0 0 0 
0 0 0 0 0 0 0 0 0 
0 0 0 0 0 0 0 0 5.15913e-14 
0 0 0 0 0 0 0 0 0 
0 0 0 0 0 0 0 0 0 
0 0 0 0 0 5.00829e-13 0 0 0 
0 0 0 3.96432e-14 0 0 0 0 0 
0 0 0 5.25542e-14 0 0 0 0 0 
0 3.44701e-14 0 0 0 0 0 0 0 
0 0 0 0 0 2.22324e-14 0 0 0 
0 0 0 0 0 0 0 0 0 
0 0 0 0 0 1.88584e-14 0 0 0 
0 0 0 0 0 0 0 0 0 
0 0 0 0 0 0 0 0 0 
0 0 0 0 0 0 0 0 0 
0 0 0 3.23873e-15 0 0 0 0 0 
0 0 0 0 0 0 0 0 0 
0 0 0 0 0 0 0 0 0 
0 0 0 0 0 0 0 0 0 
0 0 0 0 0 0 1.47548e-14 0 0 
0 0 0 0 0 0 0 0 0 
0 0 0 0 0 0 0 0 0 
0 0 0 5.11767e-15 0 0 0 0 0 
0 0 0 0 9.01304e-15 0 0 0 0 
0 0 0 5.65015e-13 0 0 0 0 0 
3.89427e-13 0 0 0 7.51377e-13 0 0 0 0 
0 0 0 0 0 0 0 0 0 
0 0 0 0 0 0 0 0 0 
0 0 0 0 0 0 0 0 5.77106e-13 
0 0 0 1.15489e-13 0 0 0 0 0 
1.29391e-14 0 0 0 0 0 0 0 0 
0 0 0 0 0 0 0 0 0 
0 0 0 1.3664e-14 0 0 0 0 0 
0 0 0 0 0 0 0 0 0 
2.97458e-13 0 2.61216e-14 2.25565e-13 0 0 0 0 0 
0 0 0 0 0 0 0 0 0 
0 0 0 0 0 0 0 0 0 
2.95065e-14 0 0 0 0 0 0 0 0 
0 0 0 0 0 0 0 0 6.57713e-15 
0 8.39352e-15 0 0 0 0 0 0 0 
0 0 0 0 0 0 0 0 0 
0 0 2.48978e-14 5.79902e-15 0 0 0 0 0 
0 0 0 0 0 0 0 0 0 
0 0 0 0 0 0 0 0 0 
0 0 0 0 0 0 0 0 0 
0 0 0 3.60538e-14 0 0 0 0 0 
0 0 0 0 0 0 0 0 0 
0 0 0 0 0 0 0 0 1.30942e-13 
0 0 0 0 0 0 0 0 0 
0 0 4.09226e-13 2.09674e-13 0 0 0 0 0 
0 0 0 0 0 0 0 0 0 
0 0 0 0 3.02982e-13 0 0 0 9.68714e-14 
0 0 0 7.19924e-13 0 0 0 6.38288e-14 0 
0 0 6.22983e-14 0 0 0 0 0 0 
0 0 0 9.292e-13 0 0 0 0 0 
0 1.39497e-12 0 0 0 0 0 0 0 
0 0 0 0 0 7.43023e-14 0 0 0 
0 0 0 0 0 1.25391e-14 3.94459e-13 0 0 
0 0 0 0 0 0 0 0 0 
0 0 0 0 4.01457e-13 0 0 0 0 
0 0 0 0 0 0 1.35721e-12 0 0 
0 0 0 4.99229e-13 0 0 0 0 1.0112e-12 
0 0 0 0 0 0 0 2.3944e-14 0 
0 0 0 0 0 0 0 0 0 
0 0 0 1.00669e-14 0 0 0 0 0 
0 0 0 0 0 0 0 0 0 
0 0 0 0 0 0 0 0 0 
0 0 0 0 0 0 0 0 0 
0 0 0 0 2.12758e-13 0 0 0 0 
0 0 0 0 0 0 0 0 0 
0 0 0 0 0 0 0 0 0 
0 0 0 0 0 0 0 0 0 
0 0 0 3.58162e-14 0 0 0 0 0 
0 0 0 0 0 3.8972e-14 0 0 0 
0 0 0 0 0 0 0 0 0 
0 0 0 0 0 0 0 2.29293e-13 0 
0 0 0 0 0 4.81423e-13 0 0 0 
0 0 0 0 0 0 7.43247e-13 0 0 
0 0 0 0 0 0 0 0 0 
0 0 0 0 0 0 0 2.1563e-13 0 
2.59481e-14 0 0 0 0 0 0 0 0 
0 0 0 0 0 0 2.09746e-14 0 0 
0 0 0 0 0 0 0 0 0 
0 0 0 0 0 0 0 0 0 
0 0 1.32172e-12 0 0 0 0 0 9.89046e-13 
0 0 0 0 0 0 0 0 7.8049e-14 
0 0 0 0 0 0 0 0 0 
0 0 0 0 0 0 0 0 0 
0 0 0 0 0 0 0 9.61597e-13 0 
0 0 0 0 0 0 0 0 0 
0 0 4.64e-13 0 8.35843e-14 0 0 0 1.94104e-15 
0 0 0 0 0 0 0 0 0 
0 0 0 0 0 0 0 0 0 
0 0 0 0 9.34714e-14 0 0 1.58241e-14 0 
0 0 0 7.76043e-14 0 0 0 0 0 
1.96973e-13 0 0 0 0 0 0 0 0 
0 0 0 0 0 0 0 0 0 
0 0 0 0 0 0 0 0 0 
0 0 0 0 0 0 0 0 0 
0 0 0 0 0 0 0 0 0 
6.5339e-14 0 0 0 0 0 0 0 0 
0 0 0 0 0 0 0 0 0 
0 0 0 0 0 0 0 0 0 
0 0 0 0 0 0 2.81016e-13 0 0 
0 0 0 0 0 0 0 0 0 
0 0 0 0 0 0 0 0 0 
0 0 0 0 0 3.88029e-14 0 0 0 
0 0 0 0 0 0 0 0 0 
0 0 0 0 0 0 3.19244e-12 2.35239e-14 0 
4.57477e-15 0 0 0 0 0 0 0 0 
0 0 0 0 0 0 0 0 0 
3.21165e-12 0 0 0 0 0 0 0 0 
0 0 0 0 0 0 0 0 0 
0 0 0 0 0 0 5.38218e-13 0 5.03881e-13 
0 0 0 0 0 0 0 0 0 
0 0 0 0 0 0 0 0 0 
0 0 0 0 0 0 0 0 0 
0 0 0 0 0 5.47785e-13 7.90418e-14 0 0 
0 0 1.84809e-14 0 0 0 0 0 1.82659e-13 
9.61567e-14 0 0 0 0 7.41219e-14 0 0 0 
0 0 0 0 0 0 0 0 0 
0 0 0 0 3.70379e-14 0 0 0 0 
0 0 0 0 0 3.11814e-14 0 9.72779e-15 0 
0 0 0 0 0 0 0 0 1.69793e-14 
0 0 0 0 0 4.36361e-13 0 0 0 
0 0 0 0 4.65084e-14 0 0 0 0 
0 0 0 0 0 0 0 0 0 
0 0 0 0 0 0 0 0 0 
0 0 0 0 0 7.46407e-15 0 0 0 
0 0 0 0 0 0 0 0 0 
0 0 0 1.54489e-13 0 0 0 0 0 
2.87007e-13 0 0 0 0 0 0 0 0 
0 0 0 8.3239e-15 0 0 0 0 0 
0 0 0 0 0 0 0 0 0 
1.16023e-12 0 6.31406e-14 0 0 0 0 1.37861e-12 0 
0 0 0 0 0 0 0 0 0 
0 5.09573e-12 0 4.87987e-12 0 0 0 0 0 
3.42557e-14 0 0 0 0 0 0 0 1.92738e-13 
0 0 4.0085e-14 0 0 0 0 0 0 
0 8.98481e-15 0 0 0 8.19947e-14 0 0 0 
4.68577e-14 0 0 0 0 0 0 0 0 
7.28625e-13 0 0 0 0 2.51252e-14 0 1.52863e-13 0 
0 0 0 0 0 0 0 0 0 
0 0 0 0 0 0 0 0 0 
0 0 0 0 0 0 0 0 0 
6.6748e-14 0 0 0 0 0 0 0 0 
0 0 0 0 0 0 2.66484e-13 0 0 
0 0 0 0 0 0 0 0 0 
0 0 0 0 0 0 0 0 0 
0 0 0 0 0 0 0 0 0 
0 0 0 0 0 0 0 0 0 
0 5.58864e-15 0 0 0 0 0 0 0 
0 0 1.79267e-14 0 0 0 0 0 0 
0 0 1.94574e-14 0 0 0 0 0 0 
0 0 0 0 0 0 0 0 0 
0 0 0 0 0 0 0 0 0 
1.83518e-14 0 0 0 0 0 0 0 0 
0 0 0 0 0 0 0 0 0 
0 0 0 0 0 0 0 0 0 
0 1.38454e-12 0 0 0 0 0 0 1.36151e-12 
0 0 0 0 2.95021e-12 2.22033e-14 0 0 1.3313e-12 
0 0 0 0 0 0 0 0 0 
0 0 0 0 9.00393e-13 0 0 0 0 
0 0 0 0 0 0 0 0 0 
0 0 0 0 0 0 0 0 5.0256e-14 
0 0 0 0 0 2.16342e-12 0 0 0 
6.76509e-12 0 0 5.52321e-12 8.04188e-15 0 0 0 0 
0 0 0 0 0 0 0 0 0 
0 0 0 4.41487e-12 0 0 0 0 0 
0 0 0 0 0 0 0 0 0 
0 0 0 0 0 0 0 0 0 
0 0 0 0 1.41566e-12 0 0 5.018e-12 0 
0 0 0 0 0 0 0 0 0 
0 0 0 0 0 1.57248e-12 0 0 0 
0 0 0 0 0 0 0 6.07366e-13 0 
0 0 0 0 0 0 4.70837e-13 0 0 
0 0 8.28936e-14 0 0 0 0 0 0 
0 0 0 0 0 0 0 0 0 
0 0 0 0 0 0 0 0 0 
0 0 0 0 0 0 0 0 0 
0 0 0 0 0 0 0 0 0 
0 0 0 0 0 0 0 0 0 
0 0 0 0 0 0 0 0 0 
0 0 0 0 0 0 0 0 0 
0 0 0 0 0 0 0 0 0 
0 0 3.68101e-14 0 0 0 0 0 0 
0 0 0 0 0 0 0 1.67811e-12 0 
0 0 0 0 0 0 0 0 0 
0 0 0 1.25338e-12 0 0 0 1.97516e-13 3.34224e-14 
0 4.13354e-14 0 0 0 0 0 0 0 
0 0 0 0 0 0 0 0 0 
0 0 0 0 5.82967e-13 0 0 0 0 
0 0 0 0 0 0 0 0 4.36205e-13 
0 0 0 4.55255e-14 0 0 0 0 0 
0 0 0 8.29245e-13 0 1.94097e-14 0 0 0 
0 0 0 0 0 0 0 0 0 
0 0 0 0 0 0 0 2.83253e-12 0 
1.57647e-12 0 0 0 0 0 0 0 0 
0 0 0 0 0 0 0 0 0 
3.18568e-13 0 0 0 0 0 0 0 1.17444e-11 
0 1.16619e-12 0 0 0 5.99411e-12 0 0 0 
0 0 0 0 0 0 0 0 0 
0 0 0 4.55751e-14 0 1.84975e-13 0 0 0 
0 0 0 0 0 0 0 0 0 
0 0 0 0 0 0 0 0 0 
0 0 0 0 0 0 0 0 0 
0 0 0 0 0 0 0 4.32384e-14 7.17095e-13 
0 0 0 0 0 0 0 0 0 
0 0 0 3.88496e-13 0 0 0 0 0 
0 0 0 0 0 0 0 0 0 
0 0 0 0 0 0 0 0 0 
0 0 0 0 0 0 0 0 0 
0 0 0 0 0 0 0 0 0 
0 5.91087e-14 0 0 2.62029e-14 7.84772e-14 0 0 0 
0 0 0 0 0 0 0 0 2.33708e-14 
0 1.08279e-12 0 0 0 3.13034e-12 0 0 0 
5.59423e-14 0 1.82898e-12 0 4.1078e-12 0 0 0 0 
0 1.57146e-14 0 0 0 0 0 0 0 
3.1178e-12 0 3.2713e-12 0 0 0 0 0 0 
1.72799e-11 0 0 0 0 1.53219e-11 0 1.0589e-11 0 
0 0 0 0 0 0 0 0 0 
0 0 2.796e-14 0 4.82489e-13 0 0 0 1.76422e-11 
0 0 0 0 3.51239e-14 0 0 0 0 
0 0 0 6.0391e-14 0 0 0 0 0 
0 0 0 0 0 0 0 0 0 
0 0 0 0 0 3.82275e-13 0 0 0 
0 0 0 0 0 0 0 0 0 
0 0 0 0 0 0 0 0 0 
0 0 0 0 0 0 0 0 5.93641e-13 
0 0 2.23753e-12 0 0 0 5.70218e-13 0 0 
0 0 0 1.16988e-12 0 0 1.12919e-12 0 0 
0 0 0 0 0 0 1.50418e-12 0 7.65931e-13 
0 0 0 0 0 0 0 9.88325e-14 0 
0 0 0 0 0 0 7.30805e-13 0 0 
0 1.6748e-12 0 0 0 0 0 0 0 
2.97094e-12 0 0 0 0 0 1.67625e-12 0 0 
0 0 0 0 0 0 0 0 0 
0 0 0 0 0 0 0 0 0 
0 0 0 0 0 0 0 0 0 
0 0 0 0 0 0 0 0 0 
0 0 0 0 0 0 0 0 0 
0 0 0 0 0 4.73872e-13 0 0 0 
0 0 0 0 2.92889e-14 4.35697e-12 0 5.72652e-12 0 
0 0 0 0 0 0 0 5.59711e-12 0 
0 0 0 0 0 0 0 0 0 
0 0 3.59903e-12 0 0 0 0 0 0 
0 0 0 0 0 0 1.7217e-11 7.535e-13 0 
0 0 3.82617e-15 0 0 6.1872e-14 0 0 0 
0 0 0 0 0 0 0 0 0 
0 0 0 0 0 0 0 0 0 
0 0 0 8.47738e-15 0 0 0 0 4.28418e-14 
0 0 1.50993e-12 1.03954e-11 0 0 0 0 0 
0 0 0 0 0 0 0 0 0 
0 0 0 0 0 1.08996e-12 0 0 0 
0 0 0 0 0 0 0 1.44897e-12 0 
0 0 4.18761e-12 0 0 1.53783e-11 0 0 0 
0 0 0 0 0 0 7.91619e-14 6.3392e-14 0 
0 0 3.32212e-12 0 0 0 0 0 0 
0 0 0 3.2128e-13 0 0 0 4.03923e-12 0 
0 0 0 0 0 9.97494e-13 0 0 0 
0 0 0 0 0 0 0 0 0 
0 0 0 0 0 0 0 0 0 
0 0 9.24096e-15 0 0 0 0 0 0 
0 0 3.42337e-12 0 0 0 0 0 0 
0 0 0 1.40649e-13 0 3.55603e-15 0 0 0 
0 0 3.64262e-15 0 0 0 0 0 0 
0 0 0 0 0 0 0 0 0 
0 3.49799e-14 0 0 0 0 0 0 0 
0 0 0 0 0 0 0 0 0 
0 0 0 0 0 0 0 0 0 
0 0 0 0 0 0 0 0 0 
3.13313e-12 0 0 2.0178e-12 0 0 0 0 0 
0 0 0 2.43391e-14 8.56664e-12 0 0 0 0 
0 0 0 0 0 0 1.73581e-14 0 0 
1.5032e-12 0 0 0 0 1.74018e-11 0 2.06426e-11 0 
1.91804e-14 0 0 0 0 0 0 3.38457e-12 0 
0 8.69628e-12 0 0 0 0 0 0 2.60765e-13 
0 0 0 0 0 0 0 0 0 
3.23068e-11 0 0 0 0 0 0 0 0 
2.62072e-15 1.75621e-11 2.07019e-11 0 0 0 0 1.49561e-13 0 
0 8.69617e-14 0 0 0 0 0 0 0 
5.68238e-14 0 0 0 0 0 1.96864e-13 0 0 
0 0 0 0 0 0 0 4.30853e-11 0 
0 0 0 6.54286e-12 0 3.65436e-13 0 2.61339e-12 0 
0 0 0 0 0 0 0 0 0 
5.99118e-15 0 0 0 0 0 0 9.29047e-14 0 
0 0 3.37743e-13 0 0 0 0 0 0 
0 0 0 0 0 0 0 1.43275e-14 0 
0 0 0 0 0 0 4.31414e-14 0 0 
0 0 0 0 0 0 0 0 0 
0 0 0 0 0 0 0 0 0 
0 0 1.71321e-13 0 0 0 0 0 0 
0 0 0 0 0 0 0 0 0 
0 0 0 0 0 0 0 0 0 
0 0 0 0 7.47716e-15 0 0 0 0 
0 0 0 0 0 0 0 0 0 
0 0 0 0 0 1.28215e-14 0 0 0 
0 0 0 0 0 0 0 4.59456e-12 0 
0 1.18598e-14 0 0 0 0 0 0 0 
0 0 1.55402e-11 0 7.19236e-14 0 0 0 0 
0 2.04867e-13 0 0 0 0 0 0 0 
0 0 0 0 0 0 0 0 0 
0 2.1399e-11 0 0 0 0 0 0 0 
0 0 1.55243e-11 0 0 0 0 0 0 
0 0 0 0 0 0 0 0 0 
0 0 0 0 0 0 0 0 0 
0 0 0 0 0 0 5.01923e-12 1.75872e-11 0 
0 2.20392e-11 0 0 0 0 0 0 0 
0 0 0 0 0 0 0 0 0 
4.85468e-14 0 1.23422e-11 0 0 0 0 0 1.9425e-14 
0 0 0 1.99447e-12 0 0 0 1.29568e-11 0 
1.51032e-13 0 0 3.00675e-14 0 0 0 0 3.08329e-14 
0 0 0 0 0 0 0 0 0 
0 0 0 8.16656e-13 0 0 0 0 0 
0 0 0 7.83321e-12 0 0 0 0 0 
0 0 0 0 0 1.80069e-14 0 0 0 
0 0 0 0 0 0 0 0 0 
0 0 0 0 0 2.83953e-12 0 0 9.55804e-12 
0 0 0 0 0 0 0 0 0 
0 3.97383e-12 0 0 4.896e-13 0 0 0 2.18598e-14 
0 9.56513e-14 0 0 0 0 0 0 0 
0 0 0 0 0 0 0 0 0 
0 0 0 0 0 0 0 0 0 
0 0 0 0 0 0 0 0 0 
0 0 0 0 0 0 0 0 0 
0 2.72888e-12 3.73308e-14 0 0 0 0 0 0 
0 0 0 0 0 0 2.72744e-13 0 0 
0 0 1.96753e-12 0 0 0 0 0 0 
0 0 0 0 0 0 0 0 0 
2.06087e-12 0 0 0 0 1.32414e-11 0 0 0 
4.14158e-11 0 0 0 0 0 0 2.15025e-12 0 
0 0 0 0 0 0 0 0 0 
0 2.75589e-11 0 0 2.23749e-12 0 0 0 4.55241e-14 
0 0 0 0 0 0 2.9896e-14 0 0 
0 0 0 0 0 0 0 0 0 
4.01446e-11 0 0 9.29184e-12 0 1.92924e-11 0 0 0 
0 0 0 0 0 0 1.41574e-11 2.34051e-12 0 
0 3.5163e-12 0 0 0 0 0 0 0 
0 0 0 0 0 3.54216e-11 0 0 0 
0 6.90051e-12 0 0 4.89662e-14 0 0 0 0 
0 0 0 7.25045e-12 0 0 0 0 0 
0 0 0 0 0 0 0 0 0 
0 0 0 0 0 2.49727e-12 0 0 0 
3.85286e-12 0 0 0 0 0 3.58315e-14 0 0 
0 0 0 0 0 0 0 0 0 
0 0 0 5.50207e-12 0 0 0 0 0 
0 0 0 0 1.43714e-12 0 0 0 0 
8.64361e-12 0 2.50818e-13 0 0 0 0 1.11659e-13 0 
0 0 0 0 0 0 0 0 0 
0 0 0 0 0 0 0 0 0 
0 0 0 0 0 0 0 6.223e-14 0 
0 0 0 0 0 0 0 0 0 
0 0 0 0 0 0 4.67536e-14 0 4.91331e-15 
2.3922e-13 0 0 0 0 0 0 0 6.13002e-12 
0 0 0 1.71099e-13 0 0 1.36228e-11 2.70204e-15 0 
2.7684e-11 0 0 0 0 0 0 3.40996e-13 0 
0 0 0 0 0 1.65788e-11 0 8.08958e-14 0 
0 3.55944e-15 0 0 2.03693e-11 0 2.52252e-11 0 0 
2.39825e-11 2.81927e-11 0 0 0 4.1941e-11 0 0 0 
0 0 0 0 0 0 0 0 5.75793e-13 
0 0 2.20245e-11 0 7.35122e-11 0 0 3.57392e-11 0 
0 0 0 0 0 0 0 0 0 
0 2.90037e-11 0 0 0 0 0 0 0 
0 0 0 0 6.32553e-12 0 0 0 0 
0 0 0 0 0 0 0 0 4.73004e-13 
0 0 0 0 0 0 0 0 0 
5.03245e-12 0 2.5756e-14 6.36088e-11 0 0 0 8.68724e-13 5.47647e-13 
0 0 0 0 5.23668e-12 0 0 3.21624e-12 4.28857e-13 
0 1.34717e-11 0 0 0 0 0 6.66867e-14 0 
0 0 1.3561e-11 0 0 0 0 8.4426e-12 4.39106e-14 
0 5.98009e-14 0 2.33233e-13 2.43577e-13 0 0 0 0 
0 0 0 0 0 0 0 0 0 
0 0 0 0 1.04924e-14 0 0 0 0 
0 0 0 0 0 3.83855e-13 0 0 3.15564e-11 
0 0 0 5.59572e-13 8.50148e-15 0 0 0 0 
0 0 0 0 0 0 0 0 7.565e-13 
0 0 0 0 0 0 0 0 0 
0 0 0 0 0 0 0 0 0 
0 0 0 0 0 0 6.50493e-14 0 0 
0 0 0 0 0 0 0 0 0 
0 0 0 0 0 0 0 5.68322e-14 0 
0 0 0 0 0 1.77079e-12 0 0 0 
6.26896e-15 0 0 0 0 0 0 0 1.59556e-14 
2.42931e-11 0 0 0 5.94518e-11 0 0 0 0 
0 0 1.66658e-11 0 0 0 0 0 0 
0 0 1.45658e-11 2.48503e-11 0 0 0 0 0 
0 0 0 0 2.39862e-11 0 0 3.73365e-13 0 
0 0 0 1.00342e-12 0 0 0 0 0 
2.40242e-11 2.95788e-12 6.37356e-11 1.12653e-10 0 6.11502e-15 0 0 0 
0 0 0 0 0 0 0 0 0 
4.44417e-11 4.68585e-11 0 0 5.92811e-11 0 2.51263e-11 0 0 
3.41184e-11 0 1.63462e-11 0 7.37548e-12 0 0 0 0 
0 0 0 0 0 0 0 0 0 
0 3.3388e-12 0 0 0 0 5.69095e-11 0 3.95908e-14 
0 0 1.73707e-11 0 4.93285e-11 0 0 0 0 
0 0 0 1.59028e-11 3.19244e-11 0 0 0 0 
0 0 1.36461e-12 0 0 0 0 0 0 
0 8.50706e-12 0 0 0 0 7.30573e-14 1.39537e-15 0 
0 0 0 0 0 0 0 0 0 
0 0 0 7.40575e-13 0 0 0 0 0 
0 0 0 0 0 0 0 0 0 
0 1.64505e-11 0 0 4.65208e-12 0 0 0 0 
0 0 0 0 9.70419e-12 0 0 0 0 
0 0 0 0 0 0 0 0 0 
0 0 0 0 0 0 0 0 0 
0 4.47524e-14 0 0 0 0 0 0 0 
0 0 0 0 0 0 0 0 0 
0 0 0 0 0 0 0 0 0 
0 0 0 0 0 0 0 0 0 
0 0 0 0 0 1.42798e-11 0 0 0 
4.49904e-12 3.80574e-12 0 0 9.46283e-12 0 0 0 0 
0 0 4.31158e-11 0 0 0 0 5.13296e-11 0 
0 0 0 0 0 0 0 0 7.20933e-13 
0 0 0 0 9.12432e-11 0 1.97163e-10 0 0 
0 4.07084e-12 5.08939e-11 3.65931e-11 2.31649e-11 7.91418e-13 0 2.69468e-11 0 
0 0 1.25491e-13 0 0 7.5687e-12 0 0 0 
0 0 0 0 0 1.45049e-11 0 0 0 
0 0 0 0 7.91382e-11 6.24755e-11 0 5.38995e-11 2.18298e-14 
6.87154e-13 0 0 0 0 2.39745e-11 0 2.88997e-12 0 
2.82485e-11 0 6.77593e-14 0 0 0 0 0 0 
0 0 0 0 0 1.61529e-14 0 0 0 
0 3.15411e-14 0 0 9.52095e-11 0 1.47968e-10 9.01174e-11 1.37837e-10 
0 3.75777e-11 0 0 0 0 3.04987e-11 0 0 
5.72368e-11 0 0 0 0 2.39228e-11 0 7.31035e-12 0 
2.93466e-13 0 0 8.83011e-14 1.50381e-11 0 2.03639e-12 0 0 
0 0 1.97824e-11 0 0 0 0 0 0 
0 0 1.50098e-12 0 0 0 7.93722e-12 0 6.07937e-15 
0 0 0 0 0 0 0 0 0 
0 0 0 0 0 0 0 0 0 
0 0 0 1.01526e-11 1.88777e-13 0 0 3.43084e-11 0 
0 0 0 0 5.40781e-12 0 0 0 2.58437e-12 
0 0 0 0 8.85188e-13 0 0 0 0 
0 0 1.61309e-13 0 0 0 0 0 0 
0 0 0 0 5.71935e-14 0 0 0 0 
0 0 0 0 0 0 0 0 0 
0 0 0 0 0 0 0 0 0 
0 0 0 0 0 0 2.14396e-12 3.74715e-11 6.97626e-14 
0 5.99035e-11 0 0 0 0 0 0 0 
0 9.62253e-14 0 0 7.40997e-14 0 0 0 0 
0 2.51358e-10 5.72065e-14 0 5.7566e-11 0 0 0 0 
0 2.13457e-14 0 2.05915e-11 0 0 0 0 0 
0 0 0 1.97911e-10 2.42601e-08 0 0 0 0 
0 0 0 0 6.96636e-12 0 1.95243e-13 0 0 
0 0 0 0 2.54321e-10 2.58211e-14 0 0 3.52576e-11 
0 1.10225e-11 0 0 0 0 0 0 5.94486e-11 
0 1.83785e-12 0 0 0 0 0 0 3.84721e-14 
0 0 0 0 0 0 0 6.39591e-12 3.64464e-11 
0 0 0 0 1.07022e-11 0 0 0 0 
4.83765e-15 3.3869e-12 4.90217e-11 5.28077e-13 0 0 0 0 0 
0 0 6.68222e-11 6.57429e-11 0 0 0 0 0 
1.24519e-10 0 0 0 0 9.52188e-11 0 1.20271e-12 7.37112e-14 
0 0 0 0 0 0 0 9.55104e-12 0 
0 2.62607e-11 0 5.03995e-14 0 0 0 0 0 
0 0 0 0 0 3.00969e-11 0 0 8.01684e-14 
0 0 0 0 0 0 0 0 0 
0 0 2.94045e-14 2.75802e-12 3.43415e-12 0 0 7.52547e-12 0 
0 0 1.79509e-11 0 0 0 0 0 0 
0 0 0 7.20125e-11 1.5302e-12 4.31866e-11 0 0 0 
2.06189e-12 0 0 0 0 0 1.17017e-12 0 0 
6.65419e-14 0 0 0 0 0 0 3.50345e-13 0 
0 0 0 0 0 7.28697e-14 0 0 0 
0 0 0 0 0 0 0 0 0 
0 0 0 0 0 0 0 0 0 
0 0 0 0 0 0 0 0 0 
0 0 0 0 1.9244e-11 1.10968e-11 0 4.3389e-13 5.6061e-11 
0 0 0 4.44712e-11 7.96777e-12 2.57601e-11 2.72943e-11 0 0 
5.2437e-14 8.50799e-12 0 0 0 0 0 0 0 
0 3.47231e-11 0 0 0 2.94939e-11 0 3.76651e-13 5.09876e-12 
0 1.43874e-11 0 0 9.80797e-12 1.44323e-11 0 0 0 
0 0 0 0 7.55741e-12 0 4.67021e-11 0 1.78949e-11 
0 0 0 0 0 0 1.19255e-11 2.17237e-11 0 
0 1.29871e-10 2.53645e-08 0 0 0 0 0 0 
2.07885e-11 0 0 6.2054e-14 2.63419e-08 0 0 1.21933e-10 0 
0 0 5.20163e-11 0 0 9.77459e-11 1.48698e-10 0 0 
0 0 0 0 2.91973e-11 1.12053e-11 0 0 0 
0 0 0 1.79102e-11 0 2.3368e-11 3.75319e-13 0 0 
0 0 1.10767e-10 5.52566e-11 0 0 0 0 0 
0 0 0 2.51173e-08 0 0 0 2.97169e-11 1.53506e-10 
8.84741e-11 0 0 1.92377e-10 4.73248e-11 0 6.08955e-12 7.21289e-11 7.51277e-11 
0 2.20677e-14 3.48767e-11 0 0 3.25912e-11 0 0 0 
0 4.2849e-11 4.06474e-12 0 2.72936e-11 0 2.03288e-14 0 0 
0 0 2.60585e-12 0 0 0 1.77796e-11 0 0 
0 0 0 0 0 0 0 0 1.56508e-13 
0 0 0 0 0 0 6.55238e-14 0 0 
0 0 0 0 0 0 0 0 0 
0 0 0 0 3.08638e-12 1.52269e-13 0 0 0 
0 0 0 0 0 0 0 0 4.1431e-14 
0 0 0 0 0 0 0 0 0 
0 0 0 0 0 0 0 0 0 
0 0 0 0 0 0 0 0 0 
0 0 0 0 0 0 0 0 0 
0 0 0 1.17307e-12 0 0 1.0878e-13 0 0 
1.52012e-11 0 4.33594e-16 0 0 7.76771e-11 8.5849e-11 0 0 
0 0 0 1.29153e-14 8.26118e-13 3.5471e-12 0 0 0 
0 1.68387e-10 0 0 0 1.03888e-11 0 0 0 
0 0 0 0 5.28938e-13 0 0 0 2.48074e-12 
0 0 0 0 0 0 8.91515e-11 8.05111e-11 2.45248e-14 
0 0 1.10509e-10 8.64422e-11 3.0952e-12 1.42919e-13 2.14376e-11 0 0 
0 0 0 0 0 4.32114e-11 0 0 0 
1.39133e-10 0 0 0 1.42708e-10 0 0 0 0 
2.4633e-11 0 1.66033e-10 0 0 0 0 1.07951e-12 6.47805e-11 
0 0 8.12984e-11 0 0 0 2.45696e-08 2.23663e-10 4.72982e-14 
0 0 0 0 0 0 1.89866e-11 0 0 
0 0 3.90859e-11 0 0 8.62754e-11 7.35651e-11 0 0 
1.10262e-10 7.67276e-11 2.57598e-11 0 0 1.43347e-15 0 0 1.49737e-10 
0 0 0 3.27386e-11 0 1.77522e-10 0 0 0 
1.01773e-10 0 0 0 5.0194e-11 6.87784e-11 0 7.01891e-12 0 
0 0 1.19241e-11 3.76222e-11 0 1.65183e-12 0 0 0 
0 4.85284e-14 0 7.01796e-11 0 3.24908e-11 0 8.36746e-11 0 
0 0 5.56886e-11 0 3.62747e-11 0 1.93622e-12 0 0 
0 4.40614e-12 0 0 1.89978e-12 0 0 0 0 
3.36262e-14 0 0 0 4.91592e-13 0 0 1.48198e-11 0 
0 0 1.87998e-11 9.63248e-11 1.88939e-11 4.43615e-14 0 0 0 
0 0 0 0 3.01995e-11 0 2.58098e-13 0 1.27233e-11 
0 1.69618e-11 0 0 0 0 0 0 0 
0 0 0 0 8.07694e-15 0 0 0 0 
0 4.34237e-14 0 0 0 0 0 1.16455e-14 0 
0 0 0 0 0 0 0 0 0 
0 0 0 0 0 0 0 0 0 
0 1.51834e-12 0 4.23005e-13 0 0 0 0 0 
0 6.5586e-12 0 6.26211e-11 0 7.19103e-11 0 7.99152e-14 0 
0 0 0 3.98932e-11 0 0 0 0 0 
0 2.62105e-08 6.827e-14 2.53597e-10 0 0 4.84883e-12 0 0 
0 1.17626e-10 6.67143e-12 0 0 0 0 0 0 
2.03552e-11 2.12803e-13 0 0 0 0 6.21285e-11 0 0 
8.47569e-12 0 7.44033e-12 0 7.13626e-12 0 0 3.13631e-14 0 
0 0 0 2.87008e-11 1.34671e-11 0 5.30776e-11 4.14708e-14 0 
3.16492e-11 0 9.34252e-11 2.82792e-11 0 0 0 0 0 
4.71409e-14 0 0 0 0 0 5.16646e-11 0 0 
0 1.27739e-10 0 0 0 0 3.69724e-10 0 4.09985e-12 
0 0 3.39083e-14 0 0 0 0 0 0 
0 0 4.7579e-11 8.49582e-11 0 2.31904e-10 0 0 7.19488e-11 
5.65976e-13 0 0 4.61787e-11 5.28854e-11 0 0 0 0 
1.17952e-10 0 0 0 0 0 2.71991e-08 2.64774e-10 0 
0 0 1.2456e-10 0 0 9.95065e-11 0 0 0 
1.11529e-11 0 0 0 0 0 0 0 0 
0 5.30727e-11 1.28305e-10 0 0 0 0 4.56263e-11 0 
0 0 0 0 0 1.05919e-11 0 0 5.02768e-14 
0 0 0 0 0 0 0 0 0 
0 0 0 0 3.62688e-11 1.20907e-12 0 0 0 
0 0 7.76659e-11 0 0 0 0 0 0 
0 1.52858e-11 0 5.46055e-11 0 0 0 0 0 
0 0 9.85145e-12 0 0 5.60423e-12 0 0 0 
0 0 0 0 0 0 0 3.15132e-14 0 
0 0 0 0 0 0 0 0 0 
0 0 0 0 0 1.94616e-15 0 0 6.03683e-14 
0 0 0 0 0 0 0 0 0 
0 2.88836e-12 0 0 0 0 0 3.46963e-11 0 
2.4944e-14 7.54529e-11 0 0 2.46487e-08 0 3.33081e-11 0 0 
4.7867e-11 0 0 0 2.38868e-11 0 0 0 0 
3.34757e-10 0 0 0 0 0 1.34396e-10 0 0 
1.65061e-10 0 1.58134e-12 0 8.12788e-11 8.91398e-12 0 4.31797e-13 0 
0 0 4.16595e-11 1.14859e-11 0 0 0 0 0 
0 1.16877e-12 2.26196e-11 2.36382e-11 0 3.01862e-11 0 0 0 
0 0 1.18021e-10 0 0 2.5636e-10 0 0 0 
0 3.2816e-11 7.06397e-11 9.93971e-11 0 0 1.65765e-10 0 0 
5.076e-11 0 1.84661e-14 0 0 7.65892e-14 9.72207e-11 9.77026e-11 0 
1.50299e-10 0 1.69245e-10 0 0 0 0 5.80721e-11 0 
6.98548e-14 0 1.95813e-11 0 0 0 0 0 0 
4.31483e-11 0 0 2.43904e-08 1.62517e-10 0 1.02732e-10 0 0 
0 0 0 0 0 9.78639e-11 0 0 0 
6.21694e-12 0 0 0 0 1.86692e-10 0 0 2.03646e-10 
0 0 0 0 1.38316e-12 0 0 0 0 
0 0 0 0 1.05922e-11 0 0 0 1.22398e-10 
0 0 0 7.22038e-11 1.64088e-10 0 1.14542e-12 0 0 
0 0 0 0 0 0 0 1.02062e-11 4.92469e-14 
0 0 0 2.21842e-13 0 2.98124e-12 0 0 0 
3.50094e-14 0 0 0 0 0 1.17838e-10 1.02895e-12 0 
0 0 0 2.48529e-08 0 0 0 8.03024e-13 7.44729e-11 
3.49732e-14 0 0 0 1.85903e-11 0 1.49801e-11 0 0 
0 0 0 0 0 0 0 0 0 
7.68642e-13 0 0 0 0 0 0 0 0 
0 0 0 0 0 0 0 0 0 
0 0 0 0 0 0 0 0 0 
0 0 0 0 0 0 5.67164e-14 0 0 
0 3.25198e-14 0 0 0 0 6.63698e-14 0 0 
0 1.81903e-10 7.71971e-11 1.09791e-10 3.71105e-11 0 0 0 6.80984e-12 
0 0 0 0 0 0 0 0 0 
2.12077e-10 0 0 7.15274e-12 0 1.18263e-10 1.34827e-10 4.19428e-11 0 
0 0 2.22628e-12 0 0 0 0 0 0 
2.69633e-11 0 0 2.37086e-12 0 3.61658e-11 0 7.14463e-11 0 
0 1.68872e-13 0 4.69952e-14 3.50383e-11 0 0 0 0 
6.25831e-11 0 0 0 1.66946e-10 0 5.18252e-11 0 0 
3.17526e-10 0 0 3.31208e-10 0 0 0 0 0 
0 0 0 0 0 0 0 0 2.39985e-10 
0 0 0 0 4.90809e-11 0 0 0 0 
0 0 0 0 0 0 4.71998e-11 0 1.77617e-11 
0 0 0 0 0 0 8.68038e-15 3.63183e-11 0 
7.38514e-11 0 0 0 0 0 0 0 1.16178e-10 
0 0 0 0 1.83296e-10 3.01251e-10 2.6999e-08 0 0 
0 1.69345e-11 3.45214e-12 0 5.20903e-12 6.0833e-11 0 4.67481e-12 0 
5.50757e-12 4.8359e-12 0 2.55755e-12 7.32165e-11 0 1.65192e-10 0 0 
0 0 0 0 0 5.86755e-11 1.83169e-10 0 0 
0 0 1.37014e-11 4.81314e-15 0 0 1.48654e-12 9.64944e-12 0 
0 0 0 0 0 0 0 0 0 
0 0 0 2.93555e-11 5.5031e-11 0 0 0 3.08523e-11 
0 0 0 0 2.86738e-11 0 0 0 0 
0 0 0 0 0 9.56635e-12 0 0 0 
0 0 0 0 0 0 0 0 0 
0 0 0 0 0 0 0 0 0 
0 0 0 0 0 0 0 0 0 
0 1.06808e-13 0 0 0 0 0 0 0 
0 0 0 0 0 0 0 0 0 
0 0 0 4.50275e-12 4.45237e-14 0 7.46209e-11 0 0 
1.19911e-10 2.97763e-11 3.45655e-11 0 0 0 0 0 2.01703e-10 
9.18945e-11 0 2.42251e-11 1.67084e-11 0 2.79595e-10 0 0 2.12229e-10 
0 0 0 0 2.6685e-08 0 0 4.71415e-11 0 
3.8262e-11 0 0 0 0 0 7.07769e-12 0 0 
0 0 0 0 0 0 0 4.31653e-13 0 
0 0 3.79465e-12 0 0 0 6.96794e-11 2.7297e-11 0 
0 0 0 0 0 0 0 0 0 
0 0 0 0 0 0 0 0 1.36572e-10 
0 1.75798e-11 1.88174e-10 1.14816e-10 0 0 0 0 0 
0 0 0 0 0 1.0226e-11 0 0 0 
0 0 0 9.7491e-11 0 0 0 0 0 
0 0 1.5277e-10 0 0 1.15327e-11 7.338e-14 0 0 
0 8.59582e-11 0 0 0 0 0 1.26162e-10 0 
0 0 0 2.45306e-10 0 7.14463e-14 0 0 0 
0 0 0 0 0 4.90404e-11 0 0 0 
0 0 0 3.28683e-11 0 2.23945e-10 2.69174e-08 0 0 
0 0 0 4.74513e-11 6.41874e-11 1.06591e-10 8.85513e-11 0 0 
0 3.88484e-11 0 0 0 0 0 0 0 
0 0 0 2.65559e-11 0 0 7.84944e-13 0 1.04425e-11 
0 0 0 4.32257e-11 0 1.45193e-10 4.2349e-11 0 0 
0 1.94269e-10 0 0 0 0 0 0 0 
1.33907e-12 0 0 0 0 7.87688e-13 0 0 0 
0 0 0 0 0 0 0 0 0 
0 0 0 0 0 0 0 0 0 
0 0 0 0 0 0 0 0 0 
0 0 0 0 0 0 0 1.36169e-13 0 
0 0 0 0 0 0 0 0 0 
0 0 4.89665e-11 0 0 5.03341e-11 0 2.40559e-11 2.23987e-11 
0 0 0 0 0 0 0 0 0 
0 1.42315e-10 0 0 1.07868e-11 0 0 0 0 
0 6.69565e-11 2.45489e-10 0 0 9.82667e-11 0 7.88289e-13 0 
4.51704e-11 3.16112e-13 5.41443e-13 0 0 0 0 0 0 
5.15898e-14 1.23817e-11 0 0 0 0 0 0 0 
0 0 0 6.52966e-11 7.84234e-11 0 0 0 0 
1.75358e-10 0 1.05056e-14 3.01362e-08 0 0 0 3.46183e-08 4.26624e-15 
0 0 0 1.76897e-10 0 1.16138e-10 3.93724e-15 7.22891e-11 1.84753e-10 
0 0 7.5504e-11 0 0 0 0 0 0 
5.53297e-11 0 0 1.76613e-12 0 0 1.36099e-11 0 0 
0 2.91112e-11 0 0 0 0 0 0 0 
2.64359e-11 0 0 4.65057e-14 7.10715e-11 0 0 0 5.58264e-11 
1.70485e-12 0 0 1.86369e-11 0 3.43855e-13 0 5.28421e-11 0 
8.17434e-11 0 0 0 0 0 0 9.37473e-11 0 
0 0 0 0 0 0 1.57803e-10 1.2073e-10 0 
0 0 0 0 0 0 0 0 0 
0 0 0 4.94461e-14 0 7.13024e-11 5.80675e-11 0 0 
0 0 2.49995e-13 0 0 0 9.53326e-15 2.2021e-13 0 
0 3.29613e-11 0 6.54159e-11 0 0 9.56704e-11 0 6.00972e-11 
0 0 9.26491e-11 0 0 0 0 0 0 