# vtk DataFile Version 5.1
vtk output
ASCII
DATASET STRUCTURED_POINTS
DIMENSIONS 250 250 1
SPACING 1 1 1
ORIGIN 0 0 0
POINT_DATA 62500
FIELD FieldData 6
feature_1 1 62500 float
0 0 0 0 0 0 0 0 0 
0 0 0 0 0 0 0 0 0 
0 0 0 0 0 0 0 0 0 
0 0 0 0 0 0 0 0 0 
0 0 0 0 0 0 0 0 0 
0 0 0 0 0 0 0 0 0 
0 0 0 0 0 0 0 0 0 
0 0 0 0 0 0 0 0 0 
0 0 0 0 0 0 0 0 0 
0 0 0 0 0 0 0 0 0 
0 0 0 0 0 0 0 0 0 
0 0 0 0 0 0 0 0 0 
0 0 0 0 0 0 0 0 0 
0 0 0 0 0 0 0 0 0 
0 0 0 0 0 0 0 0 0 
0 0 0 0 0 0 0 0 0 
0 0 0 0 0 0 0 0 0 
0 0 0 0 0 0 0 0 0 
0 0 0 0 0 0 0 0 0 
0 0 0 0 0 0 0 0 0 
0 0 0 0 0 0 0 0 0 
0 0 0 0 0 0 0 0 0 
0 0 0 0 0 0 0 0 0 
0 0 0 0 0 0 0 0 0 
0 0 0 0 0 0 0 0 0 
0 0 0 0 0 0 0 0 0 
0 0 0 0 0 0 0 0 0 
0 0 0 0 0 0 0 0 0 
0 0 0 0 0 0 0 0 0 
0 0 0 0 0 0 0 0 0 
0 0 0 0 0 0 0 0 0 
0 0 0 0 0 0 0 0 0 
0 0 0 0 0 0 0 0 0 
0 0 0 0 0 0 0 0 0 
0 0 0 0 0 0 0 0 0 
0 0 0 0 0 0 0 0 0 
0 0 0 0 0 0 0 0 0 
0 0 0 0 0 0 0 0 0 
0 0 0 0 0 0 0 0 0 
0 0 0 0 0 0 0 0 0 
0 0 0 0 0 0 0 0 0 
0 0 0 0 0 0 0 0 0 
0 0 0 0 0 0 0 0 0 
0 0 0 0 0 0 0 0 0 
0 0 0 0 0 0 0 0 0 
0 0 0 0 0 0 0 0 0 
0 0 0 0 0 0 0 0 0 
0 0 0 0 0 0 0 0 0 
0 0 0 0 0 0 0 0 0 
0 0 0 0 0 0 0 0 0 
0 0 0 0 0 0 0 0 0 
0 0 0 0 0 0 0 0 0 
0 0 0 0 0 0 0 0 0 
0 0 0 0 0 0 0 0 0 
0 0 0 0 0 0 0 0 0 
0 0 0 0 0 0 0 0 0 
0 0 0 0 0 0 0 0 0 
0 0 0 0 0 0 0 0 0 
0 0 0 0 0 0 0 0 0 
0 0 0 0 0 0 0 0 0 
0 0 0 0 0 0 0 0 0 
0 0 0 0 0 0 0 0 0 
0 0 0 0 0 0 0 0 0 
0 0 0 0 0 0 0 0 0 
0 0 0 0 0 0 0 0 0 
0 0 0 0 0 0 0 0 0 
0 0 0 0 0 0 0 0 0 
0 0 0 0 0 0 0 0 0 
0 0 0 0 0 0 0 0 0 
0 0 0 0 0 0 0 0 0 
0 0 0 0 0 0 0 0 0 
0 0 0 0 0 0 0 0 0 
0 0 0 0 0 0 0 0 0 
0 0 0 0 0 0 0 0 0 
0 0 0 0 0 0 0 0 0 
0 0 0 0 0 0 0 0 0 
0 0 0 0 0 0 0 0 0 
0 0 0 0 0 0 0 0 0 
0 0 0 0 0 0 0 0 0 
0 0 0 0 0 0 0 0 0 
0 0 0 0 0 0 0 0 0 
0 0 0 0 0 0 0 0 0 
0 0 0 0 0 0 0 0 0 
0 0 0 0 0 0 0 0 0 
0 0 0 0 0 0 0 0 0 
0 0 0 0 0 0 0 0 0 
0 0 0 0 0 0 0 0 0 
0 0 0 0 0 0 0 0 0 
0 0 0 0 0 0 0 0 0 
0 0 0 0 0 0 0 0 0 
0 0 0 0 0 0 0 0 0 
0 0 0 0 0 0 0 0 0 
0 0 0 0 0 0 0 0 0 
0 0 0 0 0 0 0 0 0 
0 0 0 0 0 0 0 0 0 
0 0 0 0 0 0 0 0 0 
0 0 0 0 0 0 0 0 0 
0 0 0 0 0 0 0 0 0 
0 0 0 0 0 0 0 0 0 
0 0 0 0 0 0 0 0 0 
0 0 0 0 0 0 0 0 0 
0 0 0 0 0 0 0 0 0 
0 0 0 0 0 0 0 0 0 
0 0 0 0 0 0 0 0 0 
0 0 0 0 0 0 0 0 0 
0 0 0 0 0 0 0 0 0 
0 0 0 0 0 0 0 0 0 
0 0 0 0 0 0 0 0 0 
0 0 0 0 0 0 0 0 0 
0 0 0 0 0 0 0 0 0 
0 0 0 0 0 0 0 0 0 
0 0 0 0 0 0 0 0 0 
0 0 0 0 0 0 0 0 0 
0 0 0 0 0 0 0 0 0 
0 0 0 0 0 0 0 0 0 
0 0 0 0 0 0 0 0 0 
0 0 0 0 0 0 0 0 0 
0 0 0 0 0 0 0 0 0 
0 0 0 0 0 0 0 0 0 
0 0 0 0 0 0 0 0 0 
0 0 0 0 0 0 0 0 0 
0 0 0 0 0 0 0 0 0 
0 0 0 0 0 0 0 0 0 
0 0 0 0 0 0 0 0 0 
0 0 0 0 0 0 0 0 0 
0 0 0 0 0 0 0 0 0 
0 0 0 0 0 0 0 0 0 
0 0 0 0 0 0 0 0 0 
0 0 0 0 0 0 0 0 0 
0 0 0 0 0 0 0 0 0 
0 0 0 0 0 0 0 0 0 
0 0 0 0 0 0 0 0 0 
0 0 0 0 0 0 0 0 0 
0 0 0 0 0 0 0 0 0 
0 0 0 0 0 0 0 0 0 
0 0 0 0 0 0 0 0 0 
0 0 0 0 0 0 0 0 0 
0 0 0 0 0 0 0 0 0 
0 0 0 0 0 0 0 0 0 
0 0 0 0 0 0 0 0 0 
0 0 0 0 0 0 0 0 0 
0 0 0 0 0 0 0 0 0 
0 0 0 0 0 0 0 0 0 
0 0 0 0 0 0 0 0 0 
0 0 0 0 0 0 0 0 0 
0 0 0 0 0 0 0 0 0 
0 0 0 0 0 0 0 0 0 
0 0 0 0 0 0 0 0 0 
0 0 0 0 0 0 0 0 0 
0 0 0 0 0 0 0 0 0 
0 0 0 0 0 0 0 0 0 
0 0 0 0 0 0 0 0 0 
0 0 0 0 0 0 0 0 0 
0 0 0 0 0 0 0 0 0 
0 0 0 0 0 0 0 0 0 
0 0 0 0 0 0 0 0 0 
0 0 0 0 0 0 0 0 0 
0 0 0 0 0 0 0 0 0 
0 0 0 0 0 0 0 0 0 
0 0 0 0 0 0 0 0 0 
0 0 0 0 0 0 0 0 0 
0 0 0 0 0 0 0 0 0 
0 0 0 0 0 0 0 0 0 
0 0 0 0 0 0 0 0 0 
0 0 0 0 0 0 0 0 0 
0 0 0 0 0 0 0 0 0 
0 0 0 0 0 0 0 0 0 
0 0 0 0 0 0 0 0 0 
0 0 0 0 0 0 0 0 0 
0 0 0 0 0 0 0 0 0 
0 0 0 0 0 0 0 0 0 
0 0 0 0 0 0 0 0 0 
0 0 0 0 0 0 0 0 0 
0 0 0 0 0 0 0 0 0 
0 0 0 0 0 0 0 0 0 
0 0 0 0 0 0 0 0 0 
0 0 0 0 0 0 0 0 0 
0 0 0 0 0 0 0 0 0 
0 0 0 0 0 0 0 0 0 
0 0 0 0 0 0 0 0 0 
0 0 0 0 0 0 0 0 0 
0 0 0 0 0 0 0 0 0 
0 0 0 0 0 0 0 0 0 
0 0 0 0 0 0 0 0 0 
0 0 0 0 0 0 0 0 0 
0 0 0 0 0 0 0 0 0 
0 0 0 0 0 0 0 0 0 
0 0 0 0 0 0 0 0 0 
0 0 0 0 0 0 0 0 0 
0 0 0 0 0 0 0 0 0 
0 0 0 0 0 0 0 0 0 
0 0 0 0 0 0 0 0 0 
0 0 0 0 0 0 0 0 0 
0 0 0 0 0 0 0 0 0 
0 0 0 0 0 0 0 0 0 
0 0 0 0 0 0 0 0 0 
0 0 0 0 0 0 0 0 0 
0 0 0 0 0 0 0 0 0 
0 0 0 0 0 0 0 0 0 
0 0 0 0 0 0 0 0 0 
0 0 0 0 0 0 0 0 0 
0 0 0 0 0 0 0 0 0 
0 0 0 0 0 0 0 0 0 
0 0 0 0 0 0 0 0 0 
0 0 0 0 0 0 0 0 0 
0 0 0 0 0 0 0 0 0 
0 0 0 0 0 0 0 0 0 
0 0 0 0 0 0 0 0 0 
0 0 0 0 0 0 0 0 0 
0 0 0 0 0 0 0 0 0 
0 0 0 0 0 0 0 0 0 
0 0 0 0 0 0 0 0 0 
0 0 0 0 0 0 0 0 0 
0 0 0 0 0 0 0 0 0 
0 0 0 0 0 0 0 0 0 
0 0 0 0 0 0 0 0 0 
0 0 0 0 0 0 0 0 0 
0 0 0 0 0 0 0 0 0 
0 0 0 0 0 0 0 0 0 
0 0 0 0 0 0 0 0 0 
0 0 0 0 0 0 0 0 0 
0 0 0 0 0 0 0 0 0 
0 0 0 0 0 0 0 0 0 
0 0 0 0 0 0 0 0 0 
0 0 0 0 0 0 0 0 0 
0 0 0 0 0 0 0 0 0 
0 0 0 0 0 0 0 0 0 
0 0 0 0 0 0 0 0 0 
0 0 0 0 0 0 0 0 0 
0 0 0 0 0 0 0 0 0 
0 0 0 0 0 0 0 0 0 
0 0 0 0 0 0 0 0 0 
0 0 0 0 0 0 0 0 0 
0 0 0 0 0 0 0 0 0 
0 0 0 0 0 0 0 0 0 
0 0 0 0 0 0 0 0 0 
0 0 0 0 0 0 0 0 0 
0 0 0 0 0 0 0 0 0 
0 0 0 0 0 0 0 0 0 
0 0 0 0 0 0 0 0 0 
0 0 0 0 0 0 0 0 0 
0 0 0 0 0 0 0 0 0 
0 0 0 0 0 0 0 0 0 
0 0 0 0 0 0 0 0 0 
0 0 0 0 0 0 0 0 0 
0 0 0 0 0 0 0 0 0 
0 0 0 0 0 0 0 0 0 
0 0 0 0 0 0 0 0 0 
0 0 0 0 0 0 0 0 0 
0 0 0 0 0 0 0 0 0 
0 0 0 0 0 0 0 0 0 
0 0 0 0 0 0 0 0 0 
0 0 0 0 0 0 0 0 0 
0 0 0 0 0 0 0 0 0 
0 0 0 0 0 0 0 0 0 
0 0 0 0 0 0 0 0 0 
0 0 0 0 0 0 0 0 0 
0 0 0 0 0 0 0 0 0 
0 0 0 0 0 0 0 0 0 
0 0 0 0 0 0 0 0 0 
0 0 0 0 0 0 0 0 0 
0 0 0 0 0 0 0 0 0 
0 0 0 0 0 0 0 0 0 
0 0 0 0 0 0 0 0 0 
0 0 0 0 0 0 0 0 0 
0 0 0 0 0 0 0 0 0 
0 0 0 0 0 0 0 0 0 
0 0 0 0 0 0 0 0 0 
0 0 0 0 0 0 0 0 0 
0 0 0 0 0 0 0 0 0 
0 0 0 0 0 0 0 0 0 
0 0 0 0 0 0 0 0 0 
0 0 0 0 0 0 0 0 0 
0 0 0 0 0 0 0 0 0 
0 0 0 0 0 0 0 0 0 
0 0 0 0 0 0 0 0 0 
0 0 0 0 0 0 0 0 0 
0 0 0 0 0 0 0 0 0 
0 0 0 0 0 0 0 0 0 
0 0 0 0 0 0 0 0 0 
0 0 0 0 0 0 0 0 0 
0 0 0 0 0 0 0 0 0 
0 0 0 0 0 0 0 0 0 
0 0 0 0 0 0 0 0 0 
0 0 0 0 0 0 0 0 0 
0 0 0 0 0 0 0 0 0 
0 0 0 0 0 0 0 0 0 
0 0 0 0 0 0 0 0 0 
0 0 0 0 0 0 0 0 0 
0 0 0 0 0 0 0 0 0 
0 0 0 0 0 0 0 0 0 
0 0 0 0 0 0 0 0 0 
0 0 0 0 0 0 0 0 0 
0 0 0 0 0 0 0 0 0 
0 0 0 0 0 0 0 0 0 
0 0 0 0 0 0 0 0 0 
0 0 0 0 0 0 0 0 0 
0 0 0 0 0 0 0 0 0 
0 0 0 0 0 0 0 0 0 
0 0 0 0 0 0 0 0 0 
0 0 0 0 0 0 0 0 0 
0 0 0 0 0 0 0 0 0 
0 0 0 0 0 0 0 0 0 
0 0 0 0 0 0 0 0 0 
0 0 0 0 0 0 0 0 0 
0 0 0 0 0 0 0 0 0 
0 0 0 0 0 0 0 0 0 
0 0 0 0 0 0 0 0 0 
0 0 0 0 0 0 0 0 0 
0 0 0 0 0 0 0 0 0 
0 0 0 0 0 0 0 0 0 
0 0 0 0 0 0 0 0 0 
0 0 0 0 0 0 0 0 0 
0 0 0 0 0 0 0 0 0 
0 0 0 0 0 0 0 0 0 
0 0 0 0 0 0 0 0 0 
0 0 0 0 0 0 0 0 0 
0 0 0 0 0 0 0 0 0 
0 0 0 0 0 0 0 0 0 
0 0 0 0 0 0 0 0 0 
0 0 0 0 0 0 0 0 0 
0 0 0 0 0 0 0 0 0 
0 0 0 0 0 0 0 0 0 
0 0 0 0 0 0 0 0 0 
0 0 0 0 0 0 0 0 0 
0 0 0 0 0 0 0 0 0 
0 0 0 0 0 0 0 0 0 
0 0 0 0 0 0 0 0 0 
0 0 0 0 0 0 0 0 0 
0 0 0 0 0 0 0 0 0 
0 0 0 0 0 0 0 0 0 
0 0 0 0 0 0 0 0 0 
0 0 0 0 0 0 0 0 0 
0 0 0 0 0 0 0 0 0 
0 0 0 0 0 0 0 0 0 
0 0 0 0 0 0 0 0 0 
0 0 0 0 0 0 0 0 0 
0 0 0 0 0 0 0 0 0 
0 0 0 0 0 0 0 0 0 
0 0 0 0 0 0 0 0 0 
0 0 0 0 0 0 0 0 0 
0 0 0 0 0 0 0 0 0 
0 0 0 0 0 0 0 0 0 
0 0 0 0 0 0 0 0 0 
0 0 0 0 0 0 0 0 0 
0 0 0 0 0 0 0 0 0 
0 0 0 0 0 0 0 0 0 
0 0 0 0 0 0 0 0 0 
0 0 0 0 0 0 0 0 0 
0 0 0 0 0 0 0 0 0 
0 0 0 0 0 0 0 0 0 
0 0 0 0 0 0 0 0 0 
0 0 0 0 0 0 0 0 0 
0 0 0 0 0 0 0 0 0 
0 0 0 0 0 0 0 0 0 
0 0 0 0 0 0 0 0 0 
0 0 0 0 0 0 0 0 0 
0 0 0 0 0 0 0 0 0 
0 0 0 0 0 0 0 0 0 
0 0 0 0 0 0 0 0 0 
0 0 0 0 0 0 0 0 0 
0 0 0 0 0 0 0 0 0 
0 0 0 0 0 0 0 0 0 
0 0 0 0 0 0 0 0 0 
0 0 0 0 0 0 0 0 0 
0 0 0 0 0 0 0 0 0 
0 0 0 0 0 0 0 0 0 
0 0 0 0 0 0 0 0 0 
0 0 0 0 0 0 0 0 0 
0 0 0 0 0 0 0 0 0 
0 0 0 0 0 0 0 0 0 
0 0 0 0 0 0 0 0 0 
0 0 0 0 0 0 0 0 0 
0 0 0 0 0 0 0 0 0 
0 0 0 0 0 0 0 0 0 
0 0 0 0 0 0 0 0 0 
0 0 0 0 0 0 0 0 0 
0 0 0 0 0 0 0 0 0 
0 0 0 0 0 0 0 0 0 
0 0 0 0 0 0 0 0 0 
0 0 0 0 0 0 0 0 0 
0 0 0 0 0 0 0 0 0 
0 0 0 0 0 0 0 0 0 
0 0 0 0 0 0 0 0 0 
0 0 0 0 0 0 0 0 0 
0 0 0 0 0 0 0 0 0 
0 0 0 0 0 0 0 0 0 
0 0 0 0 0 0 0 0 0 
0 0 0 0 0 0 0 0 0 
0 0 0 0 0 0 0 0 0 
0 0 0 0 0 0 0 0 0 
0 0 0 0 0 0 0 0 0 
0 0 0 0 0 0 0 0 0 
0 0 0 0 0 0 0 0 0 
0 0 0 0 0 0 0 0 0 
0 0 0 0 0 0 0 0 0 
0 0 0 0 0 0 0 0 0 
0 0 0 0 0 0 0 0 0 
0 0 0 0 0 0 0 0 0 
0 0 0 0 0 0 0 0 0 
0 0 0 0 0 0 0 0 0 
0 0 0 0 0 0 0 0 0 
0 0 0 0 0 0 0 0 0 
0 0 0 0 0 0 0 0 0 
0 0 0 0 0 0 0 0 0 
0 0 0 0 0 0 0 0 0 
0 0 0 0 0 0 0 0 0 
0 0 0 0 0 0 0 0 0 
0 0 0 0 0 0 0 0 0 
0 0 0 0 0 0 0 0 0 
0 0 0 0 0 0 0 0 0 
0 0 0 0 0 0 0 0 0 
0 0 0 0 0 0 0 0 0 
0 0 0 0 0 0 0 0 0 
0 0 0 0 0 0 0 0 0 
0 0 0 0 0 0 0 0 0 
0 0 0 0 0 0 0 0 0 
0 0 0 0 0 0 0 0 0 
0 0 0 0 0 0 0 0 0 
0 0 0 0 0 0 0 0 0 
0 0 0 0 0 0 0 0 0 
0 0 0 0 0 0 0 0 0 
0 0 0 0 0 0 0 0 0 
0 0 0 0 0 0 0 0 0 
0 0 0 0 0 0 0 0 0 
0 0 0 0 0 0 0 0 0 
0 0 0 0 0 0 0 0 0 
0 0 0 0 0 0 0 0 0 
0 0 0 0 0 0 0 0 0 
0 0 0 0 0 0 0 0 0 
0 0 0 0 0 0 0 0 0 
0 0 0 0 0 0 0 0 0 
0 0 0 0 0 0 0 0 0 
0 0 0 0 0 0 0 0 0 
0 0 0 0 0 0 0 0 0 
0 0 0 0 0 0 0 0 0 
0 0 0 0 0 0 0 0 0 
0 0 0 0 0 0 0 0 0 
0 0 0 0 0 0 0 0 0 
0 0 0 0 0 0 0 0 0 
0 0 0 0 0 0 0 0 0 
0 0 0 0 0 0 0 0 0 
0 0 0 0 0 0 0 0 0 
0 0 0 0 0 0 0 0 0 
0 0 0 0 0 0 0 0 0 
0 0 0 0 0 0 0 0 0 
0 0 0 0 0 0 0 0 0 
0 0 0 0 0 0 0 0 0 
0 0 0 0 0 0 0 0 0 
0 0 0 0 0 0 0 0 0 
0 0 0 0 0 0 0 0 0 
0 0 0 0 0 0 0 0 0 
0 0 0 0 0 0 0 0 0 
0 0 0 0 0 0 0 0 0 
0 0 0 0 0 0 0 0 0 
0 0 0 0 0 0 0 0 0 
0 0 0 0 0 0 0 0 0 
0 0 0 0 0 0 0 0 0 
0 0 0 0 0 0 0 0 0 
0 0 0 0 0 0 0 0 0 
0 0 0 0 0 0 0 0 0 
0 0 0 0 0 0 0 0 0 
0 0 0 0 0 0 0 0 0 
0 0 0 0 0 0 0 0 0 
0 0 0 0 0 0 0 0 0 
0 0 0 0 0 0 0 0 0 
0 0 0 0 0 0 0 0 0 
0 0 0 0 0 0 0 0 0 
0 0 0 0 0 0 0 0 0 
0 0 0 0 0 0 0 0 0 
0 0 0 0 0 0 0 0 0 
0 0 0 0 0 0 0 0 0 
0 0 0 0 0 0 0 0 0 
0 0 0 0 0 0 0 0 0 
0 0 0 0 0 0 0 0 0 
0 0 0 0 0 0 0 0 0 
0 0 0 0 0 0 0 0 0 
0 0 0 0 0 0 0 0 0 
0 0 0 0 0 0 0 0 0 
0 0 0 0 0 0 0 0 0 
0 0 0 0 0 0 0 0 0 
0 0 0 0 0 0 0 0 0 
0 0 0 0 0 0 0 0 0 
0 0 0 0 0 0 0 0 0 
0 0 0 0 0 0 0 0 0 
0 0 0 0 0 0 0 0 0 
0 0 0 0 0 0 0 0 0 
0 0 0 0 0 0 0 0 0 
0 0 0 0 0 0 0 0 0 
0 0 0 0 0 0 0 0 0 
0 0 0 0 0 0 0 0 0 
0 0 0 0 0 0 0 0 0 
0 0 0 0 0 0 0 0 0 
0 0 0 0 0 0 0 0 0 
0 0 0 0 0 0 0 0 0 
0 0 0 0 0 0 0 0 0 
0 0 0 0 0 0 0 0 0 
0 0 0 0 0 0 0 0 0 
0 0 0 0 0 0 0 0 0 
0 0 0 0 0 0 0 0 0 
0 0 0 0 0 0 0 0 0 
0 0 0 0 0 0 0 0 0 
0 0 0 0 0 0 0 0 0 
0 0 0 0 0 0 0 0 1.71227e-12 
0 0 0 0 2.80903e-12 0 0 0 0 
0 0 0 0 0 0 0 0 0 
0 0 0 0 0 0 0 0 0 
0 0 0 0 0 0 0 0 0 
0 0 0 0 0 0 0 0 0 
0 0 0 0 0 0 0 0 0 
0 0 0 0 0 0 0 0 0 
0 0 0 0 0 0 0 0 5.77326e-12 
0 0 0 0 0 0 0 0 0 
0 0 0 0 0 0 0 0 0 
0 0 0 0 0 0 0 0 0 
0 0 0 0 0 0 0 0 0 
0 0 0 0 0 0 0 0 0 
0 0 0 0 0 0 0 0 0 
0 0 0 0 0 0 0 0 0 
0 0 0 0 0 0 0 0 0 
0 0 0 0 0 0 0 0 0 
0 0 0 0 0 0 0 0 0 
0 0 0 0 0 0 0 0 0 
0 0 0 0 0 0 0 0 0 
0 0 0 0 0 0 0 0 0 
0 0 0 0 0 0 0 0 0 
0 0 0 0 0 0 0 0 0 
0 0 0 0 0 0 0 0 0 
0 0 0 0 0 0 0 0 0 
0 0 0 0 0 0 0 0 0 
0 0 0 0 0 0 0 0 0 
0 0 0 0 0 0 0 0 0 
0 0 0 0 0 0 0 0 0 
0 0 0 0 0 0 0 0 0 
0 0 0 0 0 0 0 0 0 
0 0 0 0 0 0 0 0 0 
0 0 0 0 0 0 0 0 0 
0 0 0 0 0 0 0 0 0 
0 0 0 0 0 0 0 0 0 
0 0 0 0 0 0 0 0 0 
0 0 0 0 0 0 0 0 0 
2.04853e-12 0 0 0 0 0 0 0 0 
0 0 0 0 0 0 0 0 0 
0 0 0 0 0 0 0 0 0 
0 0 0 0 0 0 0 0 0 
0 0 0 0 0 0 0 0 0 
0 0 0 0 0 0 0 0 0 
0 0 0 0 0 0 0 0 0 
0 0 0 0 0 0 0 0 0 
0 0 0 0 0 0 0 0 0 
0 0 0 0 0 0 0 0 0 
0 0 0 0 0 0 0 0 0 
0 0 0 0 0 0 0 0 0 
0 0 0 0 0 0 0 0 0 
0 0 0 0 0 0 0 0 0 
0 0 0 0 0 0 0 0 0 
0 0 0 0 0 0 0 0 0 
0 0 0 0 0 0 0 0 0 
0 0 0 0 0 0 0 0 0 
0 0 0 0 0 0 0 0 0 
0 0 0 0 0 0 0 0 0 
0 0 0 0 0 0 0 0 0 
3.32742e-12 0 0 0 0 0 0 0 0 
0 0 0 0 3.18533e-11 0 0 1.15564e-11 0 
0 0 0 0 0 0 0 0 0 
0 0 0 0 0 0 0 0 0 
0 0 0 0 0 0 0 0 0 
0 0 0 0 0 0 0 0 0 
0 0 0 0 0 0 0 0 0 
0 0 0 0 0 0 0 0 0 
0 0 0 0 0 0 0 0 0 
0 0 0 0 0 0 0 0 0 
0 0 0 0 1.23227e-11 0 0 0 0 
0 0 0 0 0 0 0 0 0 
0 0 0 0 0 0 0 0 0 
0 0 0 0 0 0 0 0 0 
0 0 0 0 0 0 0 0 0 
0 0 0 0 0 0 0 0 0 
0 0 0 0 0 0 0 0 0 
0 0 0 0 0 0 0 0 0 
0 0 0 0 0 0 0 0 0 
0 0 0 0 0 0 0 0 0 
0 0 0 0 0 0 0 0 0 
0 0 0 0 0 0 0 0 0 
0 0 0 0 0 0 0 0 0 
0 0 0 0 0 0 0 0 0 
0 0 0 0 0 0 0 0 0 
0 0 0 0 0 0 0 0 0 
0 0 0 0 0 0 0 0 0 
0 0 0 0 0 0 0 0 0 
0 0 0 0 0 0 2.21564e-11 0 0 
0 0 0 0 0 0 0 0 0 
0 0 0 0 0 0 0 0 0 
0 0 0 0 0 0 0 0 0 
0 0 0 0 0 1.78936e-11 0 0 0 
0 0 0 0 0 0 0 0 0 
0 0 0 0 0 0 0 0 0 
0 0 0 0 0 0 4.22168e-12 0 0 
0 0 0 0 0 0 0 0 0 
0 0 0 0 0 0 0 0 0 
0 0 0 0 0 0 0 0 0 
0 0 0 0 0 0 0 0 0 
0 0 0 0 0 0 0 0 0 
0 0 0 0 0 0 0 0 1.89318e-12 
0 0 0 0 0 0 0 0 0 
0 0 0 0 0 0 0 0 0 
0 0 0 0 0 0 0 0 0 
0 0 0 0 0 0 2.01032e-12 0 0 
0 0 0 0 0 0 0 0 0 
0 0 0 0 0 0 0 0 0 
0 0 0 0 0 0 0 0 0 
0 0 0 0 0 0 0 0 0 
0 0 0 0 0 0 0 0 0 
0 0 0 0 0 0 0 0 0 
0 0 0 0 0 0 0 0 0 
0 0 0 0 0 0 0 0 0 
0 0 0 0 8.03108e-12 1.45415e-11 0 0 0 
0 0 0 0 0 0 0 0 0 
0 0 0 0 0 0 0 0 0 
0 0 0 0 0 0 0 0 0 
0 9.68402e-12 0 0 2.33892e-11 0 0 0 0 
9.89869e-12 0 0 0 0 0 0 0 0 
3.22645e-11 0 0 0 0 0 0 0 0 
0 1.7415e-11 0 0 0 0 0 0 0 
0 0 0 0 0 0 0 0 0 
0 0 0 0 1.09976e-11 0 0 0 0 
0 0 0 0 0 0 1.435e-11 4.10467e-11 0 
0 0 0 4.72992e-12 0 0 0 0 0 
0 0 0 0 0 0 0 0 0 
0 0 0 0 0 0 0 0 0 
0 0 0 0 0 0 0 0 0 
0 0 0 0 0 0 0 0 0 
0 0 0 0 0 0 0 0 0 
0 0 0 0 0 0 0 0 0 
0 0 0 0 0 0 0 0 0 
0 0 0 0 0 0 0 0 0 
0 0 0 0 0 0 0 0 0 
0 0 0 0 0 0 0 0 0 
0 0 0 0 0 0 0 0 0 
0 0 0 0 0 0 0 0 0 
0 0 0 0 0 0 0 0 0 
0 0 0 0 0 0 0 0 0 
0 0 0 0 0 0 0 0 0 
0 0 1.27197e-11 0 0 0 0 0 0 
0 0 0 1.17781e-11 0 0 0 0 0 
0 0 0 0 0 0 0 0 0 
0 0 4.41556e-12 0 0 0 0 0 0 
0 0 1.46419e-11 0 0 0 0 0 0 
0 0 0 0 0 0 0 0 0 
0 0 0 0 0 0 0 0 0 
0 0 0 0 0 0 4.26709e-12 9.63061e-12 0 
0 2.55975e-11 0 0 0 0 0 0 0 
9.66002e-12 0 0 0 0 0 0 0 0 
0 0 1.22827e-11 0 0 0 0 0 0 
9.32172e-12 0 0 0 0 1.05139e-12 0 0 0 
0 0 0 0 0 0 0 0 0 
0 0 0 0 0 0 0 0 0 
0 0 0 0 0 0 5.22071e-12 0 0 
0 0 0 0 0 0 0 0 0 
0 0 0 0 0 0 0 0 0 
0 0 0 0 0 0 0 0 0 
0 0 0 0 0 0 0 0 9.66923e-12 
0 0 0 1.41008e-11 0 0 0 0 0 
0 0 0 0 0 0 0 0 0 
0 0 0 0 0 0 0 0 0 
0 0 0 0 0 0 0 0 0 
0 0 0 0 0 0 0 0 0 
0 0 0 0 0 0 0 0 0 
0 0 0 0 0 0 0 0 0 
0 0 0 0 0 0 0 0 0 
0 0 0 0 0 0 0 0 0 
0 0 0 0 2.56411e-11 0 0 0 0 
0 0 0 0 0 0 0 0 0 
0 0 1.38945e-11 0 0 1.52002e-11 0 2.23378e-12 0 
4.64052e-11 0 3.14255e-11 0 0 0 0 1.5299e-12 0 
2.14625e-11 0 0 0 0 0 0 0 0 
0 0 0 0 0 0 0 6.12509e-11 0 
0 0 0 0 0 0 0 0 0 
0 0 0 0 0 0 0 0 0 
0 0 0 6.84182e-12 0 0 0 0 0 
0 0 0 0 0 0 1.47377e-11 0 0 
0 0 0 0 0 0 0 0 0 
0 0 0 0 0 0 0 0 0 
0 0 0 0 0 2.01128e-11 0 0 0 
0 0 0 0 0 0 0 0 0 
0 0 0 0 0 0 0 0 0 
0 0 0 0 0 0 0 0 0 
3.78447e-12 0 0 0 0 0 0 0 0 
0 0 0 0 0 0 0 0 0 
0 0 0 6.0163e-12 0 0 0 0 0 
0 0 0 0 0 0 0 0 0 
0 0 0 0 0 0 0 0 0 
0 0 0 0 0 0 0 0 0 
0 0 0 0 0 0 0 0 0 
0 0 0 0 0 0 0 0 0 
0 0 0 0 0 0 0 0 0 
0 0 0 0 0 0 0 0 0 
0 0 0 0 0 0 0 0 0 
0 0 0 0 0 0 0 0 0 
0 0 0 0 0 0 0 0 0 
0 0 0 0 0 2.17876e-11 0 0 0 
0 0 0 0 2.45146e-11 0 0 0 0 
0 2.45611e-11 0 0 0 0 0 0 0 
0 0 0 0 0 0 0 0 0 
0 0 1.89165e-11 0 0 0 0 2.27941e-11 0 
5.48801e-11 0 0 0 0 0 0 0 0 
0 0 0 0 0 0 0 0 0 
0 0 0 0 0 0 0 0 1.03803e-11 
0 0 0 0 0 0 0 0 0 
0 0 0 0 0 0 0 0 0 
3.18334e-12 0 0 0 1.6005e-11 0 0 0 0 
0 0 0 0 0 0 0 0 0 
0 1.47184e-11 0 0 0 0 0 0 0 
0 0 0 0 0 0 0 0 0 
0 0 0 0 0 0 0 0 0 
0 0 0 0 0 0 0 0 0 
0 0 0 0 0 0 0 0 0 
0 0 0 0 0 0 0 0 3.12432e-11 
0 0 0 0 0 0 0 0 0 
0 0 0 0 0 0 0 0 0 
0 0 0 0 0 0 0 0 0 
0 0 0 0 0 0 0 0 0 
0 0 0 0 0 0 0 0 0 
0 0 0 0 0 0 0 0 0 
0 0 0 0 0 0 0 0 0 
0 0 0 0 0 0 0 0 0 
0 0 0 0 0 0 0 0 0 
0 0 0 0 6.02034e-11 0 0 0 0 
0 0 0 0 0 0 0 0 0 
0 0 1.56652e-11 0 0 0 0 0 0 
0 0 0 0 2.36112e-11 0 0 0 0 
0 0 0 0 0 8.33093e-11 0 0 0 
2.11645e-11 0 0 8.7989e-11 0 0 0 0 0 
0 0 0 0 0 0 0 0 0 
5.75555e-11 3.40301e-11 0 0 6.42994e-11 0 1.89666e-11 0 0 
0 0 1.98411e-11 0 0 0 0 0 0 
0 0 0 0 1.25597e-11 0 0 0 0 
0 0 0 0 0 0 3.76629e-11 0 0 
0 0 0 0 0 0 0 0 0 
0 0 0 1.61793e-11 2.18978e-11 0 0 0 0 
0 0 0 0 0 0 0 0 0 
0 9.72519e-12 0 0 0 0 0 0 0 
0 2.71074e-11 0 0 0 0 0 0 0 
0 0 0 0 0 0 0 0 0 
0 0 0 0 0 0 0 1.24083e-11 0 
0 1.77226e-11 0 0 0 0 0 0 0 
0 0 0 0 0 0 0 0 0 
0 0 0 0 0 0 0 0 0 
0 0 0 0 0 0 0 0 0 
0 0 0 0 0 0 0 0 0 
0 0 0 0 0 0 0 0 0 
0 0 0 0 0 0 0 0 0 
0 0 0 0 0 0 0 0 0 
0 0 0 0 0 0 0 0 0 
0 0 0 0 9.84838e-12 0 0 0 0 
0 0 4.20833e-11 0 0 0 0 5.25635e-11 0 
0 0 0 0 0 0 0 0 0 
0 0 0 0 6.57317e-11 0 0 0 0 
0 4.30719e-12 5.20476e-11 3.64532e-11 0 0 0 2.7487e-11 0 
0 0 0 0 0 0 0 0 0 
0 0 0 0 0 0 0 0 0 
0 0 0 0 8.80234e-11 0 0 2.80281e-11 0 
0 0 0 0 0 0 0 0 0 
2.80201e-11 0 0 0 0 0 0 0 0 
0 0 0 0 0 0 0 0 0 
0 0 0 0 0 0 0 9.37989e-11 1.78853e-10 
0 0 0 0 0 0 2.69438e-11 0 0 
6.18527e-11 0 0 0 0 2.34775e-11 0 0 0 
0 0 0 0 1.65251e-11 0 0 0 0 
0 0 2.18901e-11 0 0 0 0 0 0 
0 0 0 0 0 0 6.37913e-12 0 0 
0 0 0 0 0 0 0 0 0 
0 0 0 0 0 0 0 0 0 
0 0 2.39316e-11 0 0 0 0 0 0 
0 0 0 0 5.83346e-12 0 0 0 0 
0 0 0 0 0 0 0 0 0 
0 0 0 0 0 0 0 0 0 
0 0 0 0 0 0 0 0 0 
0 0 0 0 0 0 0 0 0 
0 0 0 0 0 0 0 0 0 
0 0 0 0 0 0 0 4.03757e-11 0 
0 6.08109e-11 0 0 7.40397e-12 6.9527e-12 0 0 0 
0 0 0 3.03897e-11 0 0 0 0 0 
0 2.29774e-10 0 0 6.23921e-11 0 0 0 0 
0 0 0 2.29585e-11 0 0 0 0 0 
0 0 0 2.17686e-10 2.44556e-08 0 0 0 3.26909e-11 
0 0 0 0 4.05938e-11 0 0 0 0 
0 0 0 0 2.56521e-10 0 0 0 2.64849e-11 
0 0 0 1.98391e-11 0 0 0 0 2.96592e-11 
0 0 1.0867e-11 0 0 0 0 0 0 
0 0 0 0 0 0 0 0 0 
0 0 0 0 0 0 0 0 0 
0 0 5.23728e-11 0 0 0 0 0 0 
0 0 0 0 0 0 0 0 0 
0 0 0 0 0 0 0 0 0 
0 0 0 0 0 0 0 0 0 
0 2.9837e-11 0 0 0 0 0 0 0 
2.68439e-11 0 0 0 0 1.66437e-11 0 0 0 
0 0 0 0 0 0 0 0 0 
0 0 0 0 0 0 0 0 0 
0 0 0 0 0 0 0 0 0 
0 0 0 8.02006e-11 0 2.40976e-11 0 0 0 
0 0 0 0 0 0 0 0 0 
0 0 0 0 0 0 0 0 0 
0 0 0 0 0 0 0 0 0 
0 0 0 0 0 0 0 0 0 
0 0 0 0 0 0 0 0 0 
0 0 0 0 0 0 0 0 0 
0 0 0 0 0 0 0 0 0 
0 0 0 5.31055e-11 0 0 2.6715e-11 0 0 
0 0 0 0 0 0 0 0 0 
0 3.0239e-11 0 0 0 0 7.70536e-11 0 0 
0 0 0 0 0 1.72348e-11 3.38708e-11 0 0 
0 0 0 0 6.77415e-12 0 5.10033e-11 0 2.16153e-11 
0 0 0 0 0 0 0 2.6874e-11 5.62245e-11 
0 1.44416e-10 2.56412e-08 0 0 0 0 0 0 
0 0 0 0 2.66793e-08 0 0 1.34399e-10 0 
0 6.7733e-12 0 0 0 1.11327e-10 1.53847e-10 0 0 
0 0 0 0 2.81435e-11 1.19766e-11 0 0 0 
0 0 0 0 0 2.43082e-11 0 0 0 
1.29721e-11 0 9.04705e-11 7.24741e-11 0 0 0 0 0 
0 0 0 2.53733e-08 0 0 0 2.61943e-11 1.98793e-10 
9.22292e-11 0 0 1.71233e-10 0 0 0 0 0 
0 0 0 0 0 4.27189e-11 0 0 0 
0 0 3.90159e-12 0 2.54226e-11 0 0 0 0 
0 0 0 0 0 0 0 0 0 
0 0 0 0 0 0 0 0 0 
0 0 0 0 0 0 1.59562e-11 0 0 
0 0 0 0 0 0 0 0 0 
0 0 0 0 0 0 0 0 0 
0 0 1.34108e-11 0 0 0 0 0 0 
0 0 0 0 0 0 0 0 0 
0 0 0 0 0 0 0 0 0 
0 0 0 0 0 0 0 0 0 
0 0 0 0 0 0 0 0 0 
0 0 0 0 0 0 0 0 0 
0 0 0 0 0 7.96648e-11 0 0 0 
0 0 0 0 0 0 0 1.26815e-11 0 
0 1.87639e-10 0 0 0 1.33944e-11 0 0 0 
0 0 0 0 0 0 4.69531e-11 0 0 
0 0 0 0 1.49095e-11 0 9.9078e-11 8.22371e-11 0 
0 0 0 0 0 0 0 0 0 
0 0 0 0 0 2.80405e-11 0 0 0 
1.10998e-10 0 0 0 1.5674e-10 0 0 0 0 
0 0 1.94457e-10 0 0 0 0 0 6.62973e-11 
0 0 9.92383e-11 0 0 0 2.47927e-08 0 0 
0 0 0 0 0 2.17557e-11 2.18145e-11 0 0 
0 0 4.4436e-11 0 0 9.47633e-11 0 0 0 
1.25717e-10 7.50133e-11 0 0 7.93151e-11 0 0 0 1.45252e-10 
0 0 0 3.32955e-11 0 0 0 0 0 
1.10475e-10 0 0 0 4.3091e-11 0 0 0 0 
0 0 1.45199e-11 3.5411e-11 0 0 0 0 0 
0 0 0 0 0 0 0 1.07389e-10 0 
0 0 5.7526e-11 0 8.49259e-11 0 2.20895e-12 0 0 
0 0 0 0 0 0 0 0 0 
0 7.91051e-12 0 0 0 0 0 1.52595e-11 2.70085e-12 
0 0 0 9.686e-11 0 0 0 0 0 
0 6.40056e-11 0 3.65247e-11 3.93691e-11 0 0 1.70783e-12 1.31626e-11 
0 0 0 0 0 0 0 0 0 
0 0 0 0 0 0 0 0 0 
0 0 0 0 0 0 0 0 0 
0 0 0 0 0 0 0 0 0 
0 0 0 0 0 0 0 0 0 
0 0 0 0 0 0 0 0 0 
0 0 0 4.74604e-11 0 4.62129e-11 0 0 0 
0 0 0 4.76042e-11 0 0 0 0 0 
0 2.65331e-08 0 2.28551e-10 0 0 0 0 0 
0 0 4.50263e-12 0 0 0 0 0 4.85599e-11 
0 0 0 0 0 3.44552e-11 0 0 0 
8.41193e-12 4.20345e-11 8.00018e-12 0 0 0 0 0 0 
0 0 0 0 0 0 0 0 0 
0 0 1.12115e-10 0 0 0 0 0 0 
0 0 0 0 0 0 0 0 0 
0 1.2928e-10 0 0 0 0 3.58597e-10 0 0 
0 0 0 3.74023e-11 0 0 0 1.6022e-11 0 
0 0 3.99987e-11 8.01639e-11 0 2.02412e-10 0 0 7.00004e-11 
0 0 0 5.24639e-11 5.89084e-11 2.95808e-11 0 0 0 
0 0 0 0 0 3.08089e-10 2.75387e-08 2.76942e-10 0 
0 0 9.39947e-11 0 0 1.10074e-10 0 9.03986e-12 0 
0 0 0 0 0 1.32473e-11 0 0 0 
0 0 1.32876e-10 0 0 0 0 4.3781e-11 7.29147e-11 
0 0 0 0 0 0 0 0 0 
0 0 0 0 0 0 0 0 0 
0 0 0 0 0 0 0 0 0 
0 0 0 0 0 2.70231e-10 0 0 0 
0 0 0 4.74358e-11 0 0 0 0 0 
0 1.93008e-11 0 0 0 0 0 0 0 
0 0 0 0 0 0 0 0 0 
0 0 0 0 0 0 0 0 0 
0 0 0 0 0 0 0 0 0 
0 0 0 0 0 0 0 0 0 
0 0 6.40372e-12 0 0 0 0 3.43539e-11 0 
0 7.33544e-11 0 0 2.48756e-08 0 3.70142e-11 0 0 
0 0 0 0 2.50692e-11 0 0 0 0 
3.75713e-10 0 0 0 0 0 8.52596e-11 0 0 
1.87863e-10 0 0 0 7.21583e-11 7.39622e-12 0 0 0 
0 0 4.38871e-11 1.26801e-11 0 0 0 0 0 
0 0 2.30835e-11 2.88005e-11 0 3.90665e-11 0 2.56553e-11 0 
0 0 1.32358e-10 0 0 2.34625e-10 2.09854e-10 0 0 
0 2.64396e-11 0 0 0 0 1.63524e-10 0 0 
4.06286e-11 0 0 0 0 0 0 5.03112e-11 0 
0 0 1.88394e-10 0 0 1.1007e-10 0 5.92534e-11 0 
0 0 1.08824e-11 0 0 0 0 0 0 
0 0 0 2.45992e-08 1.6804e-10 0 0 0 0 
0 0 1.36008e-11 0 0 1.06203e-10 0 0 1.56517e-10 
6.70596e-12 0 0 0 0 0 0 0 2.21024e-10 
0 0 0 0 0 0 1.9329e-10 0 4.21016e-11 
0 0 0 0 0 0 0 0 1.59186e-10 
0 0 0 5.34982e-11 1.68208e-10 0 0 0 0 
0 0 0 0 0 0 0 1.026e-11 0 
0 0 0 0 0 0 0 0 3.93949e-12 
0 0 0 0 0 0 1.53531e-10 0 8.27755e-11 
0 0 0 2.51002e-08 0 0 0 0 0 
0 0 3.99053e-11 0 1.80246e-11 0 0 0 0 
0 0 0 0 0 0 0 0 0 
1.12017e-12 0 0 0 0 0 0 0 0 
0 0 0 0 0 0 0 0 0 
0 0 0 0 0 0 0 0 0 
0 0 0 0 0 0 0 0 0 
0 0 0 0 0 0 0 0 0 
0 1.8641e-10 4.80389e-11 1.28385e-10 0 0 0 0 0 
0 0 0 0 0 0 0 0 0 
2.40945e-10 0 0 0 0 1.44282e-10 1.4694e-10 0 0 
0 0 2.28285e-12 0 0 0 0 0 0 
3.05717e-11 0 0 0 0 0 0 6.15954e-11 0 
0 0 0 0 3.6423e-11 0 0 0 0 
8.14503e-11 0 0 0 0 0 4.11923e-11 0 0 
0 0 0 2.62113e-10 0 0 0 0 0 
0 0 0 0 0 7.10349e-11 0 0 1.8225e-10 
0 0 0 0 6.42002e-11 8.72215e-12 0 0 0 
0 0 0 0 0 0 0 0 1.12331e-11 
0 0 0 0 7.23496e-11 0 0 0 0 
8.33841e-11 0 0 0 0 0 0 0 0 
0 0 0 0 0 2.33886e-10 2.73335e-08 0 0 
0 0 3.81467e-12 0 4.87866e-12 0 0 0 0 
0 4.94815e-12 0 0 0 0 1.69078e-10 7.77004e-11 0 
0 0 0 0 0 0 9.7102e-11 0 0 
0 0 1.56985e-11 0 0 0 0 0 0 
0 0 5.44694e-12 0 0 1.75664e-11 0 0 0 
0 0 0 3.00692e-11 4.89577e-11 2.32307e-12 0 1.9922e-11 0 
0 0 0 0 3.09011e-11 0 0 7.76522e-11 2.82613e-11 
0 0 0 0 0 0 0 0 0 
0 0 0 0 0 0 0 0 0 
0 0 0 0 0 0 0 0 0 
0 0 0 0 0 0 0 0 0 
0 0 0 0 0 0 0 0 0 
0 0 0 0 0 0 0 0 0 
0 0 0 0 0 0 7.25798e-11 1.37319e-11 0 
0 0 3.8361e-11 0 0 0 0 0 1.06623e-10 
1.20056e-10 0 1.91075e-11 0 0 2.69691e-10 0 0 1.34955e-10 
0 0 0 0 2.70225e-08 0 0 5.78751e-11 0 
0 0 0 0 6.01076e-11 0 0 0 0 
0 0 0 0 0 0 0 0 0 
0 0 0 0 0 7.24448e-11 0 1.99574e-11 0 
0 5.41894e-12 0 0 0 0 0 0 0 
0 0 0 0 0 0 0 0 1.03328e-10 
0 0 1.94343e-10 1.30828e-10 0 0 0 0 0 
0 0 0 5.34526e-12 0 9.57079e-12 0 0 8.33347e-12 
0 0 7.53176e-12 9.32705e-11 0 0 9.25101e-11 0 3.42629e-11 
0 0 1.48537e-10 0 0 0 0 0 0 
0 4.50617e-11 0 0 0 0 0 1.40896e-10 0 
0 0 0 0 0 0 0 0 0 
0 0 0 0 0 3.18797e-11 0 0 0 
0 0 0 0 0 0 2.72431e-08 0 0 
0 0 0 0 6.05547e-11 1.20538e-10 9.1569e-11 0 0 
0 0 0 0 0 0 0 0 0 
0 0 0 2.71127e-11 0 0 0 0 1.13776e-11 
0 0 0 4.67569e-11 0 1.2675e-10 0 0 0 
0 1.38281e-10 0 0 0 0 0 0 0 
0 0 0 0 2.23397e-11 0 0 0 0 
0 0 0 0 0 0 0 0 0 
0 0 0 0 0 0 0 0 0 
0 0 0 0 0 0 0 0 0 
0 0 0 0 0 0 0 0 0 
0 0 0 0 0 0 0 0 0 
0 0 5.19102e-11 0 0 0 0 2.31208e-11 0 
0 0 0 0 0 0 0 0 0 
0 1.44066e-10 0 0 0 0 0 0 0 
0 5.65169e-11 0 0 0 1.02897e-10 0 0 0 
3.56862e-11 0 0 0 0 0 0 0 0 
0 0 0 0 0 0 3.3043e-11 0 0 
0 0 0 6.4831e-11 7.91664e-11 0 0 0 0 
8.95702e-11 0 0 3.06231e-08 0 0 0 3.51848e-08 0 
0 0 0 1.80421e-10 0 0 0 0 1.45888e-10 
1.93818e-11 0 8.20193e-11 0 0 4.44454e-11 0 0 0 
6.09002e-11 0 0 1.46615e-12 0 0 1.52184e-11 0 0 
0 2.96252e-11 0 0 0 0 0 0 0 
2.72232e-11 0 0 0 0 0 0 0 5.69053e-11 
0 0 0 1.41296e-11 0 0 0 5.45801e-11 0 
6.84258e-11 0 0 0 0 0 0 9.11224e-11 4.87369e-11 
0 1.19631e-11 0 0 0 0 1.6226e-10 9.22225e-11 0 
0 0 0 0 0 0 0 0 0 
0 0 0 0 0 7.29235e-11 5.89354e-11 0 0 
0 0 0 0 1.425e-11 0 0 0 0 
0 3.38797e-11 0 7.2047e-11 0 0 0 1.39436e-11 6.20425e-11 
0 0 0 0 0 0 0 0 0 
0 0 3.49377e-11 7.74696e-11 2.1923e-11 0 0 3.47872e-11 1.25939e-10 
0 0 0 0 0 0 0 0 0 
0 0 0 0 0 0 0 0 0 
0 0 0 0 0 0 0 0 0 
0 0 0 0 0 0 0 0 0 
0 0 0 0 0 0 0 0 0 
0 0 0 0 0 0 0 0 0 
0 4.32363e-11 0 8.52083e-11 0 6.15353e-11 0 0 0 
0 0 0 1.28065e-10 0 0 0 1.10708e-10 0 
0 0 0 0 0 0 2.29454e-10 0 0 
0 0 0 0 0 1.05712e-11 0 0 0 
0 0 0 0 0 0 9.94917e-11 0 0 
0 0 8.5198e-11 0 5.0532e-12 0 0 0 0 
0 0 0 0 0 5.07826e-11 0 1.11114e-10 0 
0 0 2.75937e-10 0 0 0 0 0 0 
0 0 0 0 2.65076e-08 0 0 2.52089e-12 0 
0 0 0 0 0 0 0 0 0 
0 4.94597e-11 0 0 0 0 0 0 9.74627e-12 
0 0 0 0 1.68239e-11 0 0 0 0 
0 0 0 0 1.50525e-10 0 0 0 0 
0 0 0 0 0 0 0 1.83166e-11 9.29159e-11 
5.80587e-11 9.0985e-11 0 0 0 0 1.15936e-10 0 0 
0 2.51212e-08 0 0 0 0 3.77088e-11 0 0 
0 0 0 0 0 0 2.86149e-08 0 0 
6.20846e-11 3.20748e-12 0 0 1.91747e-11 0 0 0 0 
0 0 1.32812e-11 0 0 0 0 0 0 
0 2.62557e-11 0 0 0 0 0 0 2.80523e-11 
0 0 0 0 0 0 0 0 0 
0 0 0 0 0 0 1.22834e-10 0 8.76161e-11 
2.46638e-11 0 0 0 0 0 0 0 0 
0 0 0 0 0 0 0 0 0 
0 0 0 0 0 0 0 0 0 
0 0 0 0 0 0 0 0 0 
0 0 0 0 0 0 0 0 0 
0 0 0 0 0 0 0 0 0 
1.19633e-11 4.74305e-11 0 0 0 0 0 7.67178e-11 0 
3.71021e-10 0 1.55503e-10 0 2.99678e-11 8.25848e-11 0 0 0 
0 3.88975e-08 3.90978e-08 0 0 0 0 0 0 
2.3054e-12 0 6.58326e-11 1.75454e-11 0 0 0 0 0 
1.63085e-11 0 0 0 0 0 0 0 0 
0 0 0 0 0 0 0 0 0 
0 1.58161e-11 0 0 0 0 0 0 0 
0 0 0 0 3.37131e-08 0 0 1.18029e-10 0 
2.69001e-10 0 2.89238e-10 0 0 0 0 0 0 
0 0 0 0 0 5.50696e-11 0 0 0 
0 0 0 0 0 0 0 0 0 
0 0 0 0 0 0 0 0 0 
0 0 0 0 0 0 0 0 0 
0 0 0 1.15275e-10 0 0 5.88406e-12 1.82368e-10 0 
0 6.86675e-12 0 0 0 0 0 0 0 
0 6.72849e-11 1.09142e-11 0 0 5.30294e-11 0 1.8759e-10 0 
0 0 0 0 0 0 0 0 2.7911e-11 
0 0 0 0 0 0 0 0 0 
0 0 0 0 1.10385e-11 3.80874e-11 0 0 0 
0 0 0 0 0 0 0 1.70932e-10 0 
0 1.35667e-10 0 0 0 0 2.28322e-10 0 0 
0 0 0 0 0 0 0 0 1.48308e-11 
0 0 0 0 0 0 0 0 0 
0 0 0 0 0 0 0 0 0 
0 0 0 0 0 0 0 0 0 
0 0 0 0 0 0 0 0 0 
0 0 0 0 0 0 0 0 0 
0 0 0 0 0 0 0 0 0 
0 0 6.59532e-11 0 0 0 0 0 0 
0 0 0 0 0 0 8.77241e-11 0 0 
0 0 3.04143e-10 2.42485e-10 0 1.00809e-10 6.13498e-11 0 0 
0 0 4.09679e-11 0 0 0 0 0 0 
0 0 0 4.77958e-11 0 0 0 0 0 
0 0 9.44931e-11 0 0 0 0 0 0 
0 0 0 0 0 0 1.71964e-11 0 2.22207e-11 
0 3.07582e-10 0 0 0 5.95471e-11 0 0 0 
4.95584e-11 0 0 0 0 0 0 0 0 
0 0 0 0 0 0 0 5.40883e-11 0 
0 0 0 0 0 0 0 0 0 
0 0 0 0 1.34828e-11 0 0 0 0 
0 0 0 0 0 0 0 0 0 
0 3.03806e-11 4.41195e-11 0 0 0 0 0 0 
0 0 0 1.02e-10 0 0 0 0 0 
0 0 0 0 0 0 0 0 0 
5.53705e-11 0 0 2.71813e-10 0 0 0 0 0 
0 0 0 0 0 0 0 0 0 
0 0 0 0 0 0 0 0 0 
2.02512e-10 0 2.70564e-08 0 0 1.79529e-10 0 0 0 
0 0 4.60999e-11 0 0 2.96701e-11 0 0 0 
0 1.21278e-10 0 0 0 0 0 0 0 
0 0 0 0 0 0 0 0 0 
0 0 0 0 0 0 0 0 0 
0 0 0 0 0 0 0 0 0 
0 0 0 0 0 0 0 0 0 
0 0 0 0 0 0 0 0 0 
0 0 0 0 0 0 0 4.29688e-11 0 
0 2.52858e-11 0 0 0 2.70434e-08 0 4.25175e-10 7.51409e-11 
0 0 0 0 2.54394e-10 3.19963e-10 0 0 0 
4.42279e-11 0 0 0 0 1.27971e-10 0 0 0 
0 0 0 0 0 0 0 0 0 
0 0 0 4.51463e-11 1.1329e-10 6.64442e-11 0 0 0 
0 0 0 0 0 0 0 0 0 
0 0 5.08837e-12 1.03155e-10 1.94766e-11 0 0 0 0 
0 0 0 0 1.16185e-10 0 1.11613e-11 6.98695e-11 0 
1.02393e-10 0 1.44799e-11 2.53631e-11 0 0 0 0 0 
0 0 0 0 0 0 0 0 0 
0 0 0 0 0 0 3.79379e-11 0 0 
0 0 0 0 0 0 0 0 0 
0 0 0 0 0 0 5.04523e-11 0 5.28389e-12 
0 0 0 1.91778e-10 0 0 0 0 0 
0 0 0 0 0 5.77104e-11 2.14114e-11 0 0 
1.37981e-10 0 0 0 0 0 0 0 1.97713e-10 
3.25215e-10 0 0 0 9.08975e-11 0 0 1.69232e-11 0 
0 0 0 0 0 0 0 0 0 
0 0 0 0 0 0 0 0 0 
0 8.12648e-11 0 0 0 0 0 0 8.1497e-12 
0 0 2.1171e-10 2.72252e-11 2.70674e-11 9.34629e-11 0 3.14129e-08 0 
0 0 0 0 0 0 0 0 0 
0 0 0 0 0 0 0 0 0 
0 0 0 0 0 0 0 0 0 
0 0 0 0 0 0 0 0 0 
0 0 0 0 0 0 0 0 0 
0 0 0 0 0 0 0 0 0 
0 0 0 0 0 0 0 0 4.69516e-11 
0 0 0 0 3.45807e-10 0 0 0 1.27635e-10 
0 3.77728e-11 0 1.26381e-10 0 0 0 0 0 
3.29117e-11 0 0 0 0 0 0 0 0 
0 0 0 0 0 0 0 1.62196e-10 0 
0 1.39686e-10 0 0 0 0 0 0 0 
0 0 0 0 7.46373e-12 3.54959e-11 0 0 0 
0 0 0 0 0 0 0 1.54903e-11 2.1264e-10 
0 0 0 1.68392e-11 0 0 0 0 0 
0 0 0 0 3.88178e-11 0 0 0 0 
0 5.82491e-11 0 0 0 0 0 0 1.57032e-11 
7.95188e-12 0 6.4612e-11 0 0 0 0 0 0 
0 0 0 0 0 0 0 0 1.04298e-10 
0 0 0 0 0 0 0 0 0 
0 0 0 0 0 0 4.44803e-11 0 0 
0 1.07378e-10 0 0 0 0 0 0 0 
9.23997e-11 0 0 0 0 0 0 0 0 
0 2.6712e-08 0 1.66013e-11 0 0 0 4.64276e-11 0 
0 0 0 0 0 0 0 0 1.00788e-11 
0 0 0 0 1.40444e-10 0 0 0 3.87597e-10 
0 0 0 1.44327e-10 0 0 2.26915e-10 5.2883e-12 0 
0 0 9.01382e-11 0 0 0 0 0 0 
0 0 0 0 0 0 0 0 0 
0 0 0 0 0 0 0 0 0 
0 0 0 0 0 0 0 0 0 
0 0 0 0 0 0 0 0 0 
0 0 0 0 0 0 0 0 0 
0 0 0 0 0 0 0 0 0 
0 0 0 0 0 0 1.53356e-10 0 0 
0 0 8.34983e-11 0 0 7.43554e-12 0 0 0 
0 0 0 0 0 0 0 0 0 
0 0 0 7.90837e-11 0 0 0 3.00415e-11 0 
0 0 0 0 0 0 0 0 0 
0 0 2.29126e-10 2.74071e-08 0 0 0 0 0 
0 0 0 0 0 0 0 5.75195e-11 0 
0 0 0 0 0 0 0 0 0 
0 0 0 0 0 0 0 0 0 
0 1.20739e-10 1.43792e-10 0 0 0 2.67289e-08 0 9.27773e-11 
0 0 0 0 0 0 4.6374e-11 0 0 
0 0 0 0 0 0 0 3.63276e-11 2.42814e-10 
1.074e-10 0 0 2.76665e-08 0 0 0 0 0 
2.24306e-11 0 0 0 0 0 0 0 0 
0 0 0 0 0 0 7.56179e-11 0 0 
0 0 7.79956e-11 0 0 0 0 1.1786e-10 0 
0 0 0 0 1.51072e-10 0 0 0 0 
0 0 0 2.17691e-11 0 0 0 0 0 
0 0 0 0 2.74583e-11 0 0 1.5692e-12 0 
0 0 7.59785e-11 0 0 0 0 6.28526e-11 0 
0 0 0 0 0 0 0 0 0 
0 0 3.26471e-08 0 0 0 1.28945e-10 1.0159e-10 0 
0 0 0 0 0 0 0 0 0 
0 0 0 0 0 0 0 0 0 
0 0 0 0 0 0 0 0 0 
0 0 0 0 0 0 0 0 0 
0 0 0 0 0 0 0 0 0 
0 0 0 0 0 0 0 0 0 
5.19244e-11 8.92452e-11 0 0 0 0 0 0 3.09563e-11 
2.17325e-10 0 0 0 0 0 0 4.35479e-11 0 
0 1.43905e-10 0 1.66671e-10 0 0 0 0 0 
0 0 0 0 0 0 0 0 0 
0 0 0 0 2.60143e-08 0 0 1.85303e-10 0 
0 0 0 0 0 0 0 0 0 
0 0 0 0 2.72828e-08 0 0 0 0 
0 0 1.38104e-10 0 0 0 0 0 1.23374e-11 
0 0 0 0 0 0 0 2.86459e-11 0 
1.57632e-11 2.00294e-10 0 0 0 0 0 0 0 
0 0 0 0 0 0 0 0 0 
0 0 0 0 0 0 0 0 0 
0 0 0 0 6.18053e-11 0 0 0 0 
0 0 0 0 2.60893e-11 0 0 0 2.6201e-08 
1.00253e-10 1.02259e-10 0 5.60875e-12 0 0 0 2.35437e-11 0 
0 0 0 0 0 0 0 0 0 
0 4.34785e-11 0 0 0 0 0 0 0 
0 0 0 0 4.29512e-11 0 0 0 0 
0 0 0 3.62918e-11 0 0 0 0 0 
0 0 0 0 0 0 0 0 0 
0 0 0 0 0 1.36652e-10 5.16604e-11 0 0 
0 0 0 5.39079e-11 1.11245e-10 0 0 0 0 
0 0 0 0 0 0 0 0 0 
0 0 0 0 0 0 0 0 0 
0 0 0 0 0 0 0 0 0 
0 0 0 0 0 0 0 0 0 
0 0 0 0 0 0 0 0 0 
0 0 0 0 0 0 4.64581e-11 0 0 
9.26295e-11 0 1.12545e-10 2.64418e-08 0 0 0 0 0 
0 0 5.14653e-11 0 0 1.22942e-11 0 1.31981e-10 0 
0 0 0 0 0 0 0 0 0 
0 0 0 0 0 0 0 0 0 
0 0 0 0 0 0 0 0 0 
0 1.88335e-10 0 0 0 0 0 2.64706e-10 0 
0 0 0 0 0 0 0 0 0 
0 0 0 0 0 0 0 3.79478e-11 0 
0 0 0 0 0 0 0 1.79789e-10 0 
0 0 0 0 0 0 0 0 0 
0 0 0 0 0 6.3977e-12 0 0 0 
3.6467e-11 0 0 0 0 0 0 0 0 
2.04919e-10 0 8.64411e-11 1.63258e-10 0 0 0 0 9.57567e-11 
1.10758e-10 0 0 0 0 0 3.2716e-10 0 1.47016e-10 
0 0 0 0 1.06556e-10 0 5.16327e-11 0 0 
0 0 0 0 0 0 0 0 2.7115e-11 
0 0 0 0 0 0 0 0 0 
0 0 0 0 0 0 0 0 0 
0 0 0 0 0 0 0 0 2.75311e-08 
0 0 0 0 0 5.72252e-11 0 2.94502e-08 0 
0 0 1.5857e-10 1.01353e-11 0 2.20132e-10 0 0 1.30855e-10 
0 0 0 0 0 0 0 0 0 
0 0 0 0 0 0 0 0 0 
0 0 0 0 0 0 0 0 0 
0 0 0 0 0 0 0 0 0 
0 0 0 0 0 0 0 0 0 
0 0 0 0 0 0 0 0 1.37069e-11 