# vtk DataFile Version 5.1
vtk output
ASCII
DATASET STRUCTURED_POINTS
DIMENSIONS 100 100 1
SPACING 1 1 1
ORIGIN 0 0 0
POINT_DATA 10000
FIELD FieldData 6
feature_1 1 10000 float
0 0 0 0 0 0 0 0 0 
0 0 0 0 0 0 0 0 0 
0 0 0 0 0 0 0 0 0 
0 0 0 0 0 0 0 0 0 
0 0 0 0 0 0 0 0 0 
0 0 0 0 0 0 0 0 0 
0 0 0 0 0 0 0 0 0 
0 0 0 0 0 0 0 0 0 
0 0 0 0 0 0 0 0 0 
0 0 0 0 0 0 0 0 0 
0 0 0 0 0 0 0 0 0 
0 0 0 0 0 0 0 0 0 
0 0 0 0 0 0 0 0 0 
0 0 0 0 0 0 0 0 0 
0 0 0 0 0 0 0 0 0 
0 0 0 0 0 0 0 0 0 
0 0 0 0 0 0 0 0 0 
0 0 0 0 0 0 0 0 0 
0 0 0 0 0 0 0 0 0 
0 0 0 0 0 0 0 0 0 
0 0 0 0 0 0 0 0 0 
0 0 0 0 0 0 0 0 0 
0 0 0 0 0 0 0 0 0 
0 0 0 0 0 0 0 0 0 
0 0 0 0 0 0 0 0 0 
0 0 0 0 0 0 0 0 0 
0 0 0 0 0 0 0 0 0 
0 0 0 0 0 0 0 0 0 
0 0 0 0 0 0 0 0 0 
0 0 0 0 0 0 0 0 0 
0 0 0 0 0 0 0 0 0 
0 0 0 0 0 0 0 0 0 
0 0 0 0 0 0 0 0 0 
0 0 0 0 0 0 0 0 0 
0 0 0 0 0 0 0 0 0 
0 0 0 0 0 0 0 0 0 
0 0 0 0 0 0 0 0 0 
0 0 0 0 0 0 0 0 0 
0 0 0 0 0 0 0 0 0 
0 0 0 0 0 0 0 0 0 
0 0 0 0 0 0 0 0 0 
0 0 0 0 0 0 0 0 0 
0 0 0 0 0 0 0 0 0 
0 0 0 0 0 0 0 0 0 
0 0 0 0 0 0 0 0 0 
0 0 0 0 0 0 0 0 0 
0 0 0 0 0 0 0 0 0 
0 0 0 0 0 0 0 0 0 
0 0 0 0 0 0 0 0 0 
0 0 0 0 0 0 0 0 0 
0 0 0 0 0 0 0 0 0 
0 0 0 0 0 0 0 0 0 
0 0 0 0 0 0 0 0 0 
0 0 0 0 0 0 0 0 0 
0 0 0 0 0 0 0 0 0 
0 0 0 0 0 0 0 0 0 
0 0 0 0 0 0 0 0 0 
0 0 0 0 0 0 0 0 0 
0 0 0 0 0 0 0 0 0 
0 0 0 0 0 0 0 0 0 
0 0 0 0 0 0 0 0 0 
0 0 0 0 0 0 0 0 0 
0 0 0 0 0 0 0 0 0 
0 0 0 0 0 0 0 0 0 
0 0 0 0 0 0 0 0 0 
0 0 0 0 0 0 0 0 0 
0 0 0 0 0 0 0 0 0 
0 0 0 0 0 0 0 0 0 
0 0 0 0 0 0 0 0 0 
0 0 0 0 0 0 0 0 0 
0 0 0 0 0 0 0 0 0 
0 0 0 0 0 0 0 0 0 
0 0 0 0 0 0 0 0 0 
0 0 0 0 0 0 0 0 0 
0 0 0 0 0 0 0 0 0 
0 0 0 0 0 0 0 0 0 
0 0 0 0 0 0 0 0 0 
0 0 0 0 0 0 0 0 0 
0 0 0 0 0 0 0 0 0 
0 0 0 0 0 0 0 0 0 
0 0 0 0 0 0 0 0 0 
0 0 0 0 0 0 0 0 0 
0 0 0 0 0 0 0 0 0 
0 0 0 0 0 0 0 0 0 
0 0 0 0 0 0 0 0 0 
0 0 0 0 0 0 0 0 0 
0 0 0 0 0 0 0 0 0 
0 0 0 0 0 0 0 0 0 
0 0 0 0 0 0 0 0 0 
0 0 0 0 0 0 0 0 0 
0 0 0 0 0 0 0 0 0 
0 0 0 0 0 0 0 0 0 
0 0 0 0 0 0 0 0 0 
0 0 0 0 0 2.16695e-10 0 0 0 
3.72536e-10 0 0 0 0 0 0 0 0 
0 0 0 0 0 0 0 0 0 
0 0 0 0 0 0 0 0 0 
0 0 0 0 0 0 0 0 0 
0 0 0 0 0 0 0 0 0 
0 0 0 0 0 0 0 0 0 
0 0 0 0 0 0 0 0 0 
0 0 0 0 0 0 0 0 0 
0 0 0 0 0 0 0 0 0 
0 0 0 0 0 0 0 0 0 
0 0 0 0 0 0 0 7.24208e-10 0 
0 8.96541e-10 0 0 0 0 0 0 0 
0 0 0 0 0 0 8.43026e-10 0 0 
0 0 0 0 0 0 0 0 0 
0 0 0 0 0 0 0 0 0 
0 0 0 0 0 0 0 0 0 
0 0 0 0 0 0 0 0 0 
0 0 0 0 0 0 0 0 0 
0 0 0 0 0 0 0 0 0 
0 0 0 0 0 0 0 0 0 
0 0 0 0 0 0 0 0 0 
0 0 0 0 0 0 0 0 0 
0 1.41922e-09 0 0 0 0 0 0 0 
0 0 0 0 0 0 0 0 0 
0 0 0 0 0 0 0 0 0 
0 0 0 0 0 5.03496e-10 0 0 0 
0 0 0 0 0 0 0 0 0 
0 0 0 0 0 0 0 0 0 
0 0 0 0 0 0 0 0 0 
0 0 0 0 0 0 0 0 0 
0 0 0 0 0 0 0 0 0 
0 0 0 0 4.2524e-10 0 0 0 0 
0 0 1.67759e-10 0 0 0 0 0 1.71379e-09 
0 0 0 0 0 0 0 0 0 
0 0 0 0 0 0 0 0 0 
0 0 0 0 0 0 0 0 0 
0 0 0 0 0 0 0 0 0 
0 0 0 0 0 0 0 0 0 
0 0 0 0 0 0 0 0 0 
0 0 0 0 0 0 0 0 0 
0 0 0 0 0 0 0 0 0 
0 0 0 0 0 0 0 0 0 
0 0 0 0 0 0 0 0 0 
0 0 0 1.81388e-10 0 0 0 0 0 
0 0 0 7.9643e-07 7.42019e-09 2.02517e-09 0 0 0 
0 0 0 0 0 0 0 0 6.46537e-07 
1.23195e-09 0 0 0 0 0 0 0 0 
0 0 0 8.19586e-11 0 0 0 0 0 
0 0 0 0 0 0 0 0 0 
0 0 0 0 0 0 0 0 0 
0 0 0 0 0 0 0 0 0 
0 0 0 0 0 0 0 0 0 
0 0 0 0 0 0 0 0 0 
0 0 0 0 0 0 4.93307e-10 0 0 
0 0 0 1.57806e-09 0 0 0 0 0 
3.50176e-09 0 0 8.38331e-07 0 0 0 0 0 
0 0 0 0 0 0 0 0 0 
0 0 0 1.21482e-09 0 0 0 5.25789e-10 0 
0 0 0 0 0 0 0 0 0 
0 0 0 0 0 0 0 0 0 
0 0 0 0 0 0 0 0 0 
0 0 0 0 0 0 0 0 0 
0 0 0 0 0 0 0 0 0 
0 0 0 0 0 0 0 0 0 
0 0 0 0 0 6.48635e-07 0 0 0 
0 0 8.20894e-10 1.54579e-09 0 0 1.95775e-10 0 0 
0 0 0 0 0 0 0 0 1.28377e-09 
0 0 0 0 0 0 0 0 6.75111e-10 
0 0 0 0 0 0 0 0 0 
0 0 0 0 9.46655e-10 0 0 0 0 
6.48003e-07 1.3671e-09 0 0 4.03972e-10 0 0 0 0 
0 0 0 0 0 0 0 0 0 
0 0 0 0 0 0 0 0 0 
0 0 0 0 0 0 0 0 0 
0 0 0 0 0 0 0 0 0 
0 0 0 0 0 0 0 0 0 
8.49508e-10 1.36525e-10 0 0 1.08444e-09 3.98687e-09 6.48332e-07 4.23284e-09 2.80326e-09 
0 0 0 0 0 0 8.03126e-07 0 0 
0 0 0 0 0 0 0 0 0 
0 0 1.44117e-09 0 0 0 0 0 0 
0 0 0 0 1.03952e-09 0 0 0 0 
0 0 0 0 0 0 0 0 0 
0 0 0 0 0 0 0 0 0 
0 0 0 0 0 0 0 0 0 
0 0 0 0 0 0 0 0 0 
0 0 0 0 0 0 0 0 0 
0 0 0 0 0 0 1.95016e-09 0 0 
0 0 0 0 0 0 2.13306e-09 0 0 
0 0 0 0 0 7.46001e-07 1.08876e-08 0 0 
0 0 6.92637e-07 0 5.20977e-10 1.1755e-09 0 0 0 
0 0 0 0 1.77775e-09 0 1.67082e-09 0 0 
0 2.29248e-09 0 7.45192e-10 0 0 0 0 0 
0 0 0 0 0 0 0 0 0 
0 0 0 0 0 0 0 0 0 
0 0 0 0 0 0 0 0 0 
0 0 0 0 0 0 0 0 0 
0 0 0 0 0 0 0 0 0 
0 0 1.11488e-10 0 0 0 0 4.9515e-09 0 
1.92631e-09 0 0 0 0 0 0 0 2.41848e-09 
1.20705e-09 0 0 0 0 1.73186e-09 0 0 1.84711e-09 
0 0 0 0 0 0 1.27514e-09 0 0 
0 0 0 0 0 4.74744e-10 0 7.21974e-07 0 
7.218e-07 0 0 0 0 0 0 0 6.69175e-07 
5.51065e-10 0 0 0 0 0 0 0 0 
0 0 0 0 0 0 0 0 0 
0 0 0 0 0 0 0 0 0 
0 0 0 0 0 0 0 0 0 
0 0 0 0 0 0 0 0 0 
0 0 0 0 0 3.57593e-09 0 1.41735e-09 0 
0 0 0 0 0 0 0 0 1.61734e-09 
0 0 0 0 0 2.78156e-10 0 0 0 
0 0 0 0 0 0 0 0 0 
0 0 0 0 0 0 0 3.30776e-10 0 
0 0 2.27857e-09 0 0 0 0 6.42532e-10 1.02533e-09 
0 0 0 2.4046e-09 0 0 0 0 0 
0 0 0 0 0 0 0 0 0 
0 0 0 0 0 0 0 0 0 
0 0 0 0 0 0 0 0 0 
0 0 0 0 0 0 0 0 0 
0 0 0 0 0 0 0 1.87209e-09 0 
4.15557e-09 6.51368e-07 0 0 0 0 0 0 0 
0 0 0 3.63985e-10 6.52466e-07 0 0 0 0 
0 9.03114e-07 9.20312e-07 0 2.17e-09 7.23642e-07 0 0 0 
1.67749e-10 0 0 0 0 0 0 2.01866e-09 0 
0 0 0 3.53604e-10 0 0 0 0 0 
0 0 0 1.20849e-09 0 0 0 0 0 
0 0 1.55039e-10 0 0 0 0 0 0 
0 0 0 0 0 0 0 0 0 
0 0 0 0 0 0 0 0 0 
0 0 0 0 0 0 0 0 0 
0 0 0 8.26528e-10 2.29569e-09 4.69754e-09 6.48557e-07 4.70357e-09 0 
0 3.18436e-09 0 0 0 0 0 0 0 
0 0 0 1.52831e-09 0 0 0 0 0 
0 0 0 0 0 0 0 0 0 
0 0 9.80327e-10 0 0 0 0 0 0 
0 0 0 0 0 0 0 0 0 
0 6.70617e-07 0 0 0 0 0 0 0 
0 0 0 0 0 0 0 0 0 
0 0 0 0 0 0 0 0 0 
0 0 0 0 0 0 0 0 0 
0 0 0 0 0 0 0 0 0 
0 0 0 0 0 0 0 0 5.1626e-09 
0 0 1.11595e-09 0 0 0 0 0 0 
0 0 0 0 0 0 0 0 6.43335e-10 
2.13575e-09 0 0 0 0 0 0 0 4.86278e-10 
1.32745e-09 0 0 0 0 0 0 0 0 
0 0 0 0 0 1.30011e-09 2.43122e-10 0 0 
0 0 0 0 7.76216e-10 0 0 0 0 
0 0 0 0 0 0 0 4.95535e-09 0 
0 0 0 0 0 0 0 0 0 
0 0 0 0 0 0 0 0 0 
0 0 0 0 0 0 0 0 0 
0 0 0 0 0 0 0 0 0 
0 0 0 0 0 0 0 0 0 
0 0 0 4.74322e-10 0 0 0 8.29316e-10 0 
0 0 0 0 0 1.84689e-09 0 0 0 
0 0 0 0 0 0 0 2.28596e-10 0 
0 0 0 0 0 0 0 0 0 
0 0 0 0 0 1.54571e-09 0 0 8.39768e-10 
4.71302e-10 0 0 0 2.53081e-10 0 0 2.17521e-10 0 
7.21687e-07 0 0 0 0 0 0 0 0 
0 0 0 0 0 0 0 0 0 
0 0 0 0 0 0 0 3.60753e-10 0 
0 0 0 0 0 0 0 0 0 
1.11312e-09 0 0 0 0 0 0 1.80701e-09 0 
0 0 3.61253e-10 4.9888e-10 0 0 7.01282e-10 0 0 
0 0 0 0 0 0 0 8.80649e-07 8.77939e-07 
0 0 0 0 0 0 0 0 0 
0 0 0 0 0 0 0 0 6.48777e-07 
0 0 0 0 0 0 0 0 0 
0 6.57238e-07 7.76373e-09 0 0 0 0 0 0 
6.15337e-09 1.90854e-09 0 0 0 0 0 0 0 
0 0 0 0 0 0 0 0 0 
0 0 0 0 0 0 0 0 0 
5.74022e-10 0 0 0 4.65309e-10 0 0 0 0 
0 0 0 0 0 0 0 0 0 
1.63204e-09 0 0 0 0 0 0 0 0 
0 0 0 0 0 1.49858e-09 0 0 2.93429e-09 
0 0 2.67296e-09 0 0 1.13844e-09 6.47334e-07 0 0 
0 0 0 0 0 0 0 0 0 
0 0 0 0 0 0 4.0385e-09 0 0 
0 0 0 4.65281e-10 3.69765e-09 0 0 0 0 
1.14848e-09 0 7.28828e-07 1.8916e-09 2.87638e-10 0 0 0 0 
0 0 0 0 0 0 0 0 0 
0 0 0 0 0 0 0 0 0 
0 0 0 1.30941e-09 1.3125e-09 0 0 1.1324e-09 0 
0 0 0 0 0 0 0 0 0 
0 0 2.78278e-09 0 0 0 0 5.39223e-10 0 
0 0 0 0 0 0 0 2.42752e-09 0 
3.87644e-09 0 0 2.37564e-10 2.05973e-09 0 0 0 0 
0 0 1.20423e-09 0 0 0 0 0 0 
0 0 2.07848e-09 1.13103e-09 0 0 9.34117e-09 6.56252e-07 5.45059e-09 
0 0 0 0 0 0 0 0 0 
0 0 4.18201e-09 0 0 6.36497e-10 0 0 0 
0 0 0 0 0 0 0 0 0 
0 0 0 0 0 0 0 0 0 
0 0 0 0 0 0 0 0 0 
7.21846e-07 0 0 0 0 0 0 0 0 
0 0 3.76201e-09 6.4901e-07 0 0 1.64362e-09 0 7.02017e-07 
0 2.57723e-09 0 0 0 0 0 0 0 
0 0 0 0 0 0 0 0 0 
0 0 0 0 4.82791e-10 0 0 0 5.25389e-10 
0 0 1.20114e-09 0 2.13552e-09 0 0 0 0 
0 0 2.85787e-09 0 0 0 0 1.24409e-09 7.58524e-10 
0 0 0 3.07543e-09 0 0 3.1085e-09 0 0 
0 0 0 0 0 0 0 0 0 
0 0 0 0 0 0 0 0 0 
0 0 0 6.61746e-07 0 0 0 0 7.80015e-07 
0 0 0 0 0 0 0 0 0 
0 0 0 1.33738e-09 0 0 0 0 0 
0 0 7.09032e-07 0 0 0 0 0 0 
0 1.2394e-09 0 0 0 9.1973e-10 0 0 0 
8.46651e-10 0 0 7.79705e-10 0 0 0 0 0 
0 0 0 0 0 0 0 0 0 
0 1.08205e-09 0 0 0 6.5806e-07 0 0 1.37446e-09 
0 4.00156e-10 0 0 0 0 0 1.05871e-09 0 
0 0 0 0 0 0 0 0 0 
0 0 0 0 0 0 0 0 0 
0 0 1.81015e-09 3.42049e-09 0 0 0 0 0 
0 0 3.8216e-09 1.96418e-09 0 0 7.72168e-10 0 0 
0 0 0 0 1.40001e-09 0 0 0 0 
2.03356e-09 0 0 0 0 0 2.79317e-09 6.13762e-09 0 
0 0 7.07378e-07 0 0 0 0 0 0 
0 0 0 0 0 2.50415e-09 4.25636e-09 1.66124e-09 0 
0 0 0 0 0 0 1.72095e-09 0 0 
0 0 2.37036e-09 0 0 0 0 0 0 
0 0 0 0 0 6.75576e-07 0 0 0 
3.75047e-10 0 0 0 0 0 0 0 0 
0 0 0 0 0 0 0 0 0 
0 0 0 0 4.043e-10 0 0 1.77072e-09 7.14568e-07 
1.10222e-08 1.21923e-09 7.47024e-07 0 0 0 0 0 0 
0 9.73177e-10 0 0 0 0 0 0 0 
0 0 0 0 0 0 0 0 0 
0 0 0 0 0 0 4.44976e-10 0 0 
0 0 0 0 0 0 6.61289e-07 0 0 
0 0 0 0 0 0 6.52489e-07 2.09902e-09 0 
0 0 6.46297e-09 3.665e-09 0 0 0 0 0 
0 0 1.22467e-09 0 0 0 0 0 0 
0 0 0 0 0 0 0 0 0 
0 0 0 0 0 0 0 0 0 
0 0 0 0 0 2.69097e-10 2.14191e-09 0 0 
9.63854e-10 0 0 0 0 0 1.08447e-09 1.17343e-09 0 
0 0 3.36216e-09 2.02616e-09 0 0 0 0 0 
0 0 5.17654e-10 0 0 0 0 0 0 
7.05321e-07 0 0 7.27194e-07 4.76892e-09 0 0 0 0 
0 0 0 1.48026e-10 0 0 0 2.97645e-09 0 
0 0 0 1.88419e-09 1.30936e-09 0 0 0 3.54207e-09 
0 0 4.41523e-09 6.5262e-07 0 0 0 0 1.22868e-09 
0 0 0 0 2.40121e-09 0 0 0 0 
0 0 0 0 0 0 0 0 0 
0 0 0 0 0 0 0 0 0 
0 0 0 0 0 0 0 0 0 
0 0 0 0 0 0 0 3.12472e-09 2.92199e-10 
0 8.75556e-07 0 0 0 0 0 0 0 
0 0 0 0 0 6.00472e-10 0 7.25261e-07 0 
6.33486e-09 0 0 0 0 0 0 0 0 
0 0 0 0 1.48978e-09 2.97118e-09 0 5.07591e-09 0 
0 0 0 0 0 0 0 0 0 
0 0 0 0 0 0 0 0 0 
0 0 0 0 2.65529e-09 0 0 6.78794e-07 4.59936e-09 
0 0 2.3441e-10 0 0 0 0 0 0 
0 0 0 0 0 0 0 0 0 
0 0 0 0 0 0 0 0 0 
0 0 0 0 0 0 0 0 0 
3.17371e-09 0 8.89394e-07 0 0 0 0 0 0 
0 0 0 0 0 2.80983e-09 0 6.64132e-09 0 
0 0 2.74612e-09 0 0 0 0 9.5615e-10 0 
0 0 4.01794e-10 0 0 1.13943e-09 0 5.17042e-07 0 
0 0 0 0 0 0 0 2.76327e-09 0 
0 0 0 1.94059e-09 0 0 0 0 0 
0 0 0 0 0 0 0 0 4.67102e-10 
0 0 0 0 0 0 0 0 0 
0 0 0 0 0 0 0 0 0 
0 0 0 0 0 0 0 0 0 
0 0 4.80025e-10 0 0 0 0 0 0 
0 0 0 0 0 6.1735e-09 6.87574e-07 4.39232e-09 0 
0 6.55928e-10 0 0 6.8723e-10 0 0 0 0 
0 0 0 0 0 0 0 0 0 
0 0 0 0 0 0 0 0 5.94863e-09 
1.94174e-09 0 0 0 7.52284e-07 0 8.09596e-07 5.17505e-10 0 
0 0 0 0 0 0 0 0 0 
0 0 0 0 0 3.14669e-09 6.58306e-07 0 0 
0 0 0 0 0 0 0 0 0 
0 0 0 0 0 0 0 0 0 
0 0 0 0 0 0 0 0 0 
0 0 0 0 0 0 0 0 0 
2.21511e-09 1.63341e-09 0 0 0 5.25766e-09 0 0 7.92454e-10 
0 1.96099e-09 0 0 0 0 0 0 0 
9.03619e-07 9.18348e-07 0 3.60077e-09 6.62092e-10 0 0 0 4.5992e-09 
0 0 0 0 6.67135e-10 0 0 0 3.56872e-10 
0 0 0 0 0 0 0 3.8181e-09 0 
1.48655e-09 0 0 0 0 0 7.64152e-10 0 0 
0 0 0 0 4.31178e-10 0 2.66009e-09 2.16766e-09 0 
2.48964e-09 2.66866e-09 0 5.67088e-10 0 0 0 0 0 
0 0 0 0 0 0 0 0 0 
0 0 0 0 0 0 0 0 0 
0 0 0 0 0 0 0 0 0 
0 0 0 2.25239e-09 0 0 0 0 0 
0 6.23917e-10 0 0 6.16216e-10 0 2.27051e-10 0 2.61616e-09 
0 0 0 0 4.54933e-09 1.19653e-09 0 0 4.00003e-09 
0 0 1.9419e-09 0 0 0 0 0 0 
0 0 0 0 0 0 0 0 3.90202e-09 
8.83131e-07 0 0 7.39342e-07 0 1.38219e-09 0 0 0 
0 0 0 0 0 0 0 0 0 
0 0 0 0 0 0 0 0 0 
0 0 0 0 0 0 0 0 0 
0 0 0 0 0 0 0 0 0 
0 0 0 0 0 0 0 0 0 
0 0 0 3.53159e-09 7.17895e-07 0 8.57886e-09 0 0 
4.09576e-09 3.17861e-09 0 2.21397e-09 0 5.60599e-10 0 0 0 
0 0 0 0 0 0 0 0 0 
0 7.66066e-07 0 0 0 6.61247e-07 0 0 0 
0 6.73381e-10 0 0 1.39746e-09 0 0 0 0 
8.36924e-07 0 0 0 2.6946e-09 0 0 0 0 
0 0 0 0 0 0 0 0 0 
0 0 0 0 0 0 0 0 0 
0 0 0 0 0 0 0 0 0 
0 0 0 0 0 0 0 0 0 
0 0 0 5.30984e-10 0 0 0 0 0 
0 0 1.23648e-09 0 0 0 0 7.8296e-07 0 
0 0 0 6.56167e-07 0 0 1.53887e-09 0 0 
0 1.74504e-09 0 0 7.15678e-07 0 8.14305e-10 0 0 
0 0 9.2795e-09 0 0 0 4.1663e-09 0 0 
0 0 0 0 0 6.95895e-10 6.43913e-10 0 0 
0 0 0 0 7.5241e-07 6.11277e-09 0 0 0 
0 0 0 0 0 0 0 0 0 
0 0 0 5.44847e-10 0 0 0 0 0 
0 0 0 0 0 0 0 0 0 
0 0 0 0 0 0 0 0 0 
0 0 0 0 0 0 9.64993e-10 0 0 
0 0 0 0 0 0 0 0 0 
2.96189e-09 0 0 3.21266e-09 4.95228e-09 0 1.5198e-09 0 0 
0 0 0 0 0 7.10343e-09 0 9.24498e-10 8.55969e-09 
0 8.86464e-07 0 8.25975e-07 0 0 0 0 3.88705e-09 
1.27339e-09 0 0 0 0 0 0 0 0 
0 0 0 0 0 0 0 0 0 
0 0 0 0 0 0 0 0 0 
0 0 0 0 0 0 0 0 0 
0 0 0 0 0 0 0 0 0 
0 0 0 0 0 0 0 0 0 
0 0 0 0 0 0 9.49476e-10 0 0 
6.17627e-10 0 0 0 0 4.43115e-10 0 0 1.11599e-08 
7.35856e-07 0 0 1.69696e-09 0 0 0 1.18652e-09 0 
0 0 0 0 0 0 0 0 0 
0 8.65002e-07 0 0 0 0 0 0 0 
0 0 0 0 1.16508e-09 6.6962e-07 0 0 0 
0 1.90153e-09 0 0 4.67852e-09 0 0 0 0 
0 0 0 0 0 0 0 0 0 
0 0 0 0 0 0 0 8.31851e-10 0 
0 0 0 0 0 0 0 0 0 
0 0 0 0 0 0 0 0 0 
0 0 0 0 0 0 0 6.45749e-07 0 
0 0 0 0 0 0 0 0 0 
0 0 1.66922e-09 0 1.67195e-09 1.08468e-09 2.45586e-09 1.36708e-09 4.39763e-10 
5.17736e-10 0 0 7.55788e-10 0 5.38192e-10 0 0 0 
7.59634e-07 0 0 0 0 0 0 0 0 
0 0 0 1.63126e-09 0 0 5.09144e-09 0 3.83467e-09 
0 0 0 0 0 0 2.5995e-09 0 1.68695e-09 
0 4.41713e-10 0 0 0 0 0 0 0 
0 0 0 0 0 0 0 0 0 
6.15887e-10 0 0 0 0 0 0 0 0 
0 0 0 0 0 0 0 0 0 
0 0 0 0 2.9249e-10 0 2.33153e-09 2.31634e-09 0 
0 0 0 0 0 0 0 6.88427e-10 0 
1.28537e-09 3.45992e-09 0 0 0 0 0 0 0 
0 0 0 0 7.17765e-10 9.50287e-10 0 2.91909e-09 0 
0 0 0 0 0 0 5.0406e-10 1.20685e-09 0 
0 0 0 0 0 0 0 0 0 
4.87096e-09 0 0 8.5062e-07 0 8.464e-07 9.29137e-09 0 0 
0 0 0 0 0 0 0 0 0 
4.86528e-10 0 0 0 3.32959e-09 0 0 0 0 
2.24328e-09 8.51107e-10 0 0 0 0 0 0 0 
0 0 0 0 0 0 0 0 0 
0 0 0 0 0 0 0 0 0 
0 0 0 0 1.69404e-09 2.99231e-09 0 0 0 
0 0 0 0 0 0 0 0 0 
0 0 0 0 0 0 7.60353e-10 0 0 
0 0 4.08197e-09 0 0 4.70843e-09 0 0 0 
0 0 0 0 0 0 0 0 0 
6.78316e-07 0 0 0 0 8.85356e-07 0 4.14163e-09 2.74655e-09 
8.04199e-10 0 0 0 0 0 0 0 0 
0 0 0 0 0 0 0 0 7.20026e-07 
1.55366e-09 0 0 0 0 0 0 0 0 
0 0 0 0 0 0 0 0 0 
0 0 0 0 0 0 0 0 0 
0 0 0 0 0 0 0 6.46053e-07 0 
0 1.03053e-09 0 0 0 0 0 0 0 
0 0 0 0 6.50613e-07 0 0 0 0 
0 0 0 0 9.11795e-07 8.97536e-07 0 0 0 
0 0 0 0 0 0 1.25695e-10 0 0 
3.33938e-09 0 0 0 0 0 0 0 0 
0 0 0 0 0 4.60716e-10 0 0 0 
0 0 0 0 0 1.28807e-08 7.02873e-07 0 0 
0 0 0 0 0 0 0 0 0 
0 0 0 0 0 0 0 0 0 
0 0 0 0 0 0 0 0 0 
0 0 0 0 0 0 0 0 1.92854e-09 
0 0 0 0 0 0 0 0 0 
0 0 0 0 2.39509e-09 0 0 2.26849e-09 0 
0 0 0 0 0 1.07018e-08 0 0 5.00639e-10 
0 0 0 0 0 0 0 2.86316e-10 0 
0 0 0 0 0 0 0 0 0 
0 0 0 0 0 0 0 2.45175e-10 0 
0 0 0 0 0 0 0 0 0 
0 0 7.14246e-07 0 0 0 0 0 0 
0 0 0 0 0 0 0 0 0 
0 0 0 0 0 0 0 0 0 
0 0 0 0 7.09901e-10 0 0 0 0 
2.05162e-09 0 0 0 0 0 0 0 0 
0 0 0 0 0 0 0 0 9.25929e-10 
5.75955e-10 0 0 0 0 0 0 0 3.12183e-09 
6.36732e-10 0 0 0 8.09994e-10 0 0 0 0 
0 0 0 3.82644e-10 0 0 0 0 2.81629e-09 
2.90562e-09 0 0 0 0 0 0 0 2.02666e-10 
0 0 0 0 0 0 6.90424e-07 9.95953e-10 1.29192e-09 
0 0 0 0 0 0 0 3.72053e-10 0 
0 0 0 0 0 0 0 0 0 
0 0 0 0 0 0 0 0 0 
0 0 0 0 0 0 0 0 0 
0 0 0 0 0 0 0 0 0 
0 0 4.59927e-10 0 0 0 0 1.76025e-09 0 
0 0 0 0 1.88423e-09 8.67748e-09 6.8009e-07 0 0 
1.70842e-09 0 1.26744e-09 0 0 0 0 0 0 
0 0 0 0 2.84919e-10 0 0 0 0 
0 0 0 0 0 0 3.21739e-09 3.09827e-09 0 
1.33242e-09 0 0 6.56564e-07 0 1.68384e-09 6.71447e-10 0 0 
3.85585e-09 0 0 0 0 2.55987e-09 0 0 0 
2.13918e-10 0 0 0 0 0 0 0 0 
0 0 0 0 0 0 0 0 0 
0 0 0 0 0 1.77573e-09 0 0 0 
0 0 0 0 0 0 0 0 0 
0 0 0 0 0 0 6.50555e-07 0 0 
0 0 0 0 0 0 0 0 0 
0 0 0 0 0 0 0 0 0 
0 0 0 0 0 0 0 0 0 
0 0 1.392e-09 0 0 2.73734e-09 6.74579e-09 6.51461e-07 0 
0 0 0 0 7.95365e-09 3.75481e-09 0 0 0 
0 1.47715e-09 0 0 0 0 0 0 1.76113e-09 
0 0 0 0 0 0 0 0 0 
0 0 0 0 0 0 0 0 0 
0 0 0 0 0 0 6.46532e-07 4.20587e-09 3.59437e-09 
0 3.2619e-10 0 0 0 0 0 0 0 
0 0 0 0 0 0 0 0 0 
0 0 0 0 0 0 0 1.53249e-09 1.4567e-09 
2.78793e-09 0 0 9.42342e-10 0 0 1.32168e-09 6.80084e-07 0 
0 0 0 0 0 0 0 0 0 
0 0 0 0 3.94927e-09 0 0 2.47378e-09 0 
0 0 0 8.78438e-10 0 0 0 0 1.05986e-09 
0 0 0 0 0 0 0 6.62965e-07 0 
0 0 0 0 0 0 0 0 0 
0 0 0 0 0 0 0 0 0 
0 0 0 0 0 0 0 0 0 
0 0 0 0 0 0 0 0 0 
0 0 0 0 0 0 0 0 6.68284e-10 
0 1.30742e-09 8.76693e-10 0 0 0 0 0 0 
0 0 0 0 0 0 2.20245e-09 0 0 
0 0 0 0 0 0 0 0 0 
0 0 0 0 0 6.50634e-07 0 0 0 
0 0 0 0 0 0 0 0 0 
3.39327e-09 0 6.59354e-07 0 0 1.7269e-09 0 0 0 
0 0 0 0 0 0 0 0 0 
0 0 0 0 0 0 0 0 0 
0 0 0 0 0 0 0 0 0 
1.76132e-09 0 0 0 0 0 0 0 0 
0 0 0 0 0 0 0 0 0 
1.368e-09 0 9.81016e-10 0 0 0 0 0 0 
0 0 0 0 0 0 0 9.84856e-10 4.3343e-09 
0 0 0 9.91155e-07 9.17984e-07 0 0 5.3482e-10 0 
0 0 4.14757e-10 0 0 0 0 0 0 
1.19835e-09 0 0 0 0 0 0 0 0 
0 0 0 0 0 0 0 0 0 
0 0 0 0 0 0 0 0 0 
0 0 0 0 0 0 0 0 0 
0 0 0 0 0 0 0 0 0 
0 2.13523e-10 0 0 0 0 0 0 0 
0 0 0 0 0 0 0 0 0 
0 4.11399e-10 0 0 0 0 0 0 2.75082e-10 
0 0 0 0 0 0 0 0 0 
0 0 0 8.35434e-07 0 0 7.31866e-09 0 0 
0 4.85025e-10 0 0 0 0 0 6.98305e-10 0 
0 0 6.84922e-10 0 0 0 0 0 0 
0 0 0 0 0 0 0 3.67674e-10 0 
0 0 2.22852e-09 0 0 0 0 0 0 
0 0 0 0 0 0 0 0 0 
0 0 0 0 0 0 0 0 6.72124e-10 
0 0 0 0 0 0 0 0 0 
0 0 0 0 0 0 1.90972e-09 0 0 
0 0 0 3.33139e-10 0 0 0 6.48988e-07 0 
0 0 0 0 0 0 0 0 0 
6.72989e-07 0 3.30953e-09 0 0 0 0 0 0 
0 0 0 0 0 0 0 0 0 
0 0 0 0 0 0 0 0 0 
6.68645e-07 0 0 1.02e-09 9.20343e-10 0 0 0 0 
2.08983e-09 6.59174e-07 0 0 0 0 0 0 0 
0 0 0 0 0 0 0 0 0 
0 0 0 0 0 0 0 2.13183e-10 4.37729e-10 
0 0 0 0 0 0 0 0 0 
0 0 0 0 0 6.78597e-09 6.81104e-07 0 0 
0 7.63543e-10 0 1.15917e-09 0 0 0 3.35634e-09 0 
0 0 0 0 0 0 0 1.75762e-09 0 
0 5.27405e-09 0 0 0 0 0 0 0 
0 0 0 0 0 0 0 0 0 
0 0 0 0 0 0 0 0 0 
0 0 4.15308e-10 2.88541e-09 0 0 0 0 2.41106e-09 
0 1.17802e-08 0 0 0 0 0 1.13396e-10 0 
0 0 0 0 0 0 0 0 0 
0 0 0 0 0 0 0 0 0 
0 0 0 6.46411e-07 0 0 0 8.30253e-10 0 
0 0 0 0 6.8192e-07 0 0 0 5.78561e-09 
0 0 0 4.9582e-10 0 0 0 4.10683e-09 0 
1.99744e-09 2.55434e-09 0 0 0 0 0 9.58563e-10 6.58716e-07 
4.06697e-09 3.24552e-09 0 0 0 0 0 0 0 
0 0 0 8.69336e-10 0 0 0 0 0 
0 0 0 1.03845e-10 0 0 0 0 1.8537e-09 
0 0 0 0 0 0 0 0 0 
0 0 0 0 0 0 0 0 0 
0 0 0 0 0 0 0 0 0 
0 0 0 0 0 0 0 0 0 
0 0 0 6.24902e-10 1.92618e-09 0 0 0 0 
0 0 0 7.31583e-10 0 0 1.10805e-09 0 0 
0 2.07168e-09 0 0 0 0 0 0 0 
0 0 0 0 0 0 0 0 0 
1.17294e-09 2.37804e-09 0 0 0 1.43444e-09 0 0 0 
0 0 1.73589e-09 6.708e-07 5.26588e-09 0 0 7.78838e-10 0 
0 0 0 0 0 0 0 0 0 
0 0 0 0 0 1.3469e-09 0 0 0 
6.54561e-07 0 0 0 0 0 0 0 0 
0 0 0 0 0 0 0 0 0 
0 0 0 0 0 0 0 0 0 
0 0 0 0 0 0 7.19834e-10 0 1.0409e-09 
5.85019e-10 0 0 2.82731e-09 0 0 0 0 1.73007e-09 
2.20903e-09 2.38776e-09 7.41421e-07 3.31487e-09 0 3.4099e-09 0 6.65545e-07 2.33682e-09 
0 0 0 0 1.22423e-09 0 0 0 0 
0 0 0 5.35288e-10 0 0 0 0 0 
0 0 0 0 0 0 0 0 9.7916e-10 
0 0 0 0 0 0 0 0 0 
0 0 0 9.87683e-07 1.08948e-06 0 0 0 0 
0 0 0 0 0 0 0 0 0 
0 0 0 0 0 0 0 0 0 
0 0 0 0 0 0 0 0 0 
0 0 0 0 3.70033e-10 0 0 0 0 
0 0 0 0 0 7.10789e-07 0 0 1.94273e-09 
0 0 3.80923e-09 1.08923e-09 0 0 0 0 0 
0 0 0 0 0 6.74616e-07 0 1.25698e-09 0 
0 0 0 0 0 0 0 0 0 
0 0 0 0 0 0 3.46963e-09 0 4.55426e-10 
0 0 0 0 0 0 0 0 0 
0 0 0 0 0 9.52462e-07 0 0 0 
1.38304e-09 0 0 0 0 1.05848e-09 0 0 7.69542e-07 
0 0 0 0 0 0 0 0 0 
0 0 0 0 0 0 0 0 0 
0 0 0 0 0 0 0 0 0 
0 0 0 0 4.77439e-10 0 0 0 9.27032e-10 
0 2.66939e-09 0 0 7.47197e-07 0 2.18216e-09 0 2.67756e-09 
0 0 0 0 0 6.89088e-10 0 0 0 
0 0 0 0 0 8.29048e-10 0 0 1.4861e-10 
0 0 0 0 0 0 0 6.83378e-07 0 
0 2.24528e-09 4.30846e-10 0 0 0 0 0 0 
0 0 0 1.5329e-09 0 0 0 0 0 
2.13287e-09 3.82198e-09 0 0 0 0 0 0 0 
0 7.734e-07 0 0 0 0 0 0 0 
0 0 0 0 0 0 0 0 0 
0 0 0 0 0 0 0 0 0 
0 0 0 0 0 6.57286e-09 6.98889e-07 2.89033e-09 0 
4.12764e-09 0 0 0 0 0 4.737e-10 0 0 
0 0 3.4349e-09 6.66815e-07 0 0 0 0 0 
0 0 0 0 0 0 0 0 0 
0 0 0 7.66861e-07 8.9809e-09 0 0 0 0 
1.67487e-09 0 7.41533e-09 0 0 0 0 0 0 
0 3.78095e-10 0 0 0 0 9.35058e-10 4.75578e-09 8.0532e-10 
0 6.70613e-07 3.144e-09 2.18676e-09 0 0 0 0 0 
0 0 0 2.79871e-09 0 0 0 0 0 
0 0 0 0 0 0 0 0 0 
0 0 0 0 0 0 0 0 0 
0 0 0 6.17265e-10 0 0 2.98854e-09 0 0 
0 0 0 6.90295e-10 0 0 0 0 2.74798e-09 
0 0 1.1901e-09 0 0 9.78218e-09 0 0 0 
6.74614e-07 0 1.93611e-09 0 0 0 0 0 0 
0 1.34114e-10 0 3.57611e-10 0 7.69163e-07 0 0 0 
0 0 1.05259e-09 0 0 0 0 9.90503e-10 0 
0 0 0 0 0 0 1.98696e-09 0 0 
0 0 0 1.55624e-09 0 0 0 0 0 
0 0 0 0 2.47602e-09 0 0 0 0 
0 0 0 0 0 0 0 0 0 
0 0 0 0 0 0 0 0 0 
0 0 0 0 0 0 0 0 0 
0 1.4333e-09 0 0 5.28195e-10 4.60492e-10 0 0 6.76805e-07 
0 0 1.84613e-09 2.3854e-09 0 0 2.1831e-10 0 0 
0 0 6.28688e-10 3.1267e-09 0 0 6.64195e-07 0 2.38322e-09 
0 0 0 1.44805e-09 0 0 0 0 0 
0 0 0 0 9.41001e-07 9.69404e-07 1.52113e-09 0 0 
0 0 3.89797e-09 5.38868e-10 6.57912e-07 0 0 0 0 
0 2.24044e-09 2.63507e-09 0 0 5.95835e-10 0 0 0 
0 0 0 0 0 0 0 0 0 
0 0 0 0 0 0 0 0 0 
0 0 0 0 0 0 0 0 0 
0 0 0 0 0 0 0 0 0 
0 0 6.96123e-10 6.18703e-10 0 0 0 0 0 
0 0 0 7.704e-10 0 0 0 0 0 
0 0 0 1.28909e-09 2.0329e-10 7.81672e-10 0 0 0 
1.59337e-09 1.28998e-09 0 0 0 0 2.21035e-09 0 0 
0 0 0 0 0 0 0 0 0 
0 0 0 0 0 4.03696e-09 0 0 0 
0 0 0 0 0 0 0 4.11449e-10 0 
0 0 0 4.78162e-09 8.27687e-07 0 0 0 0 
0 0 0 0 0 0 0 0 0 
0 0 0 0 0 0 0 0 0 
0 0 0 0 0 0 0 0 0 
0 9.61703e-10 0 0 0 0 0 9.49792e-10 0 
0 0 0 0 0 0 0 4.86822e-10 0 
0 0 1.15506e-09 0 0 0 3.0431e-09 0 2.893e-09 
0 1.63169e-09 1.42612e-09 0 0 0 0 0 0 
0 0 0 0 0 0 0 1.00961e-06 9.87732e-09 
0 0 0 0 2.46408e-09 0 0 3.58368e-10 0 
0 0 0 0 0 0 0 0 0 
0 0 4.06604e-09 0 9.87998e-07 0 0 0 1.10505e-09 
0 0 0 0 0 0 0 0 0 
0 0 0 0 0 0 0 0 0 
0 0 0 0 0 0 4.39208e-10 0 1.7689e-09 
7.71658e-09 0 1.27107e-09 0 7.2798e-10 0 0 0 6.53506e-07 
4.56874e-09 5.79963e-10 0 0 0 0 1.84252e-09 0 0 
0 0 0 0 0 0 0 6.74528e-07 0 
0 0 0 0 0 0 3.71463e-10 0 0 
0 0 0 0 2.2436e-09 0 0 0 9.47433e-07 
0 0 0 0 7.52177e-07 0 0 0 0 
0 0 0 0 0 0 0 1.73601e-09 0 
0 6.80695e-07 1.28505e-09 0 0 9.23982e-07 0 0 6.37965e-10 
1.10526e-09 0 0 0 0 0 0 0 0 
0 0 0 0 0 0 0 0 0 
0 0 0 0 0 0 0 0 0 
0 0 0 6.74338e-10 0 0 9.06201e-10 0 0 
0 0 0 0 0 0 0 0 0 
0 0 0 0 0 0 0 0 1.14526e-09 
0 1.13496e-09 2.48283e-09 0 0 0 0 0 0 
0 0 0 1.90511e-09 0 9.59918e-10 1.32307e-09 0 0 
0 0 0 9.55354e-07 0 1.36062e-09 0 0 0 
9.67714e-10 0 0 0 3.43963e-09 0 6.68265e-07 0 0 
0 0 4.01248e-09 0 3.22515e-09 0 0 0 0 
2.85278e-10 0 0 0 0 0 0 0 0 
0 0 0 0 0 0 0 0 0 
0 0 0 0 0 0 6.54934e-10 0 0 
0 5.64619e-09 6.79999e-07 5.03507e-09 0 4.42694e-10 0 0 0 
0 6.0943e-10 3.90895e-09 0 0 0 0 1.16039e-09 6.54152e-07 
0 1.47824e-09 0 0 0 0 2.33631e-10 0 0 
0 0 7.46797e-09 7.4256e-07 0 0 0 1.21636e-09 0 
0 1.38195e-09 0 1.25275e-09 0 9.76805e-10 0 2.60884e-10 0 
0 0 1.30229e-09 0 9.1867e-07 5.59465e-10 0 3.71042e-09 0 
7.00426e-07 0 1.39582e-09 6.89564e-07 3.6206e-09 0 0 4.61939e-09 0 
0 2.63098e-09 0 0 0 4.23299e-10 0 0 0 
1.87075e-09 0 0 0 0 0 0 0 0 
0 0 0 0 0 0 0 0 0 
0 0 0 0 0 0 0 0 0 
0 0 0 0 0 5.98269e-10 0 0 0 
5.3613e-10 0 0 0 0 0 0 0 0 
1.15172e-09 0 0 0 0 0 0 0 0 
1.33958e-09 0 0 0 0 0 7.70817e-07 0 1.09343e-09 
0 1.36665e-09 0 0 0 0 0 0 0 
0 0 0 0 0 0 0 0 0 
0 0 0 0 0 0 0 0 0 
0 0 0 0 0 4.84886e-09 0 0 8.8184e-10 
0 0 0 0 0 0 0 0 0 
0 0 0 0 0 0 0 0 0 
0 0 0 0 0 0 0 0 0 
0 0 0 0 0 0 0 9.73731e-10 0 
0 4.41679e-10 0 0 0 0 0 0 0 
3.55943e-10 0 0 0 0 0 0 0 0 
0 0 0 1.47653e-09 0 0 0 1.21471e-09 0 
2.88003e-09 0 0 0 6.82824e-07 0 0 0 0 
0 8.12612e-10 0 0 0 0 2.44245e-10 0 0 
0 0 6.24136e-10 0 0 0 0 0 0 
0 0 0 0 0 7.82943e-07 0 0 0 
0 0 0 0 0 0 0 0 0 
0 0 0 0 0 0 0 0 0 
0 0 0 0 0 0 0 0 0 
9.83204e-10 0 0 8.80211e-07 8.97445e-07 0 0 2.66134e-10 0 
0 0 0 6.53264e-09 0 3.10084e-10 0 0 0 
2.24704e-09 0 0 0 0 0 0 0 0 
0 0 0 0 0 0 0 8.83736e-07 1.3961e-09 
0 0 0 0 5.21899e-09 1.80337e-09 0 0 6.77535e-07 
0 1.46405e-09 0 0 6.63306e-07 0 0 0 0 
0 0 0 0 1.3237e-09 0 0 0 0 
0 0 6.87413e-07 0 0 0 0 7.70298e-07 0 
0 0 0 0 0 0 0 0 0 
0 0 0 0 0 0 0 0 0 
0 0 0 0 0 0 0 0 0 
0 1.70728e-09 0 0 0 0 6.53544e-09 0 0 
1.8912e-09 1.87525e-09 0 0 0 6.46916e-07 7.02783e-09 2.84331e-09 0 
0 0 0 0 6.53329e-07 2.6429e-09 2.00607e-09 0 1.24995e-10 
0 0 0 0 0 0 0 0 0 
0 0 0 0 0 0 0 0 7.31302e-10 
0 5.16198e-09 0 0 0 0 0 1.04171e-09 0 
1.57088e-09 0 6.61645e-07 0 0 0 2.52176e-09 0 0 
6.87117e-07 0 0 2.42089e-09 0 0 0 0 0 
0 0 0 0 0 0 0 0 0 
0 0 0 0 0 0 0 0 0 
0 0 0 0 0 0 0 0 0 
0 0 0 8.93765e-10 1.75229e-09 0 0 0 0 
0 0 1.76877e-09 0 0 0 1.75717e-09 0 0 
0 0 0 0 0 3.02448e-09 0 0 0 
0 0 0 0 0 0 0 9.98089e-07 1.16319e-06 
1.056e-06 0 0 0 7.78652e-07 0 0 3.11162e-09 4.59895e-09 
0 0 3.06043e-09 0 0 0 0 0 0 
0 0 0 0 0 1.00462e-09 0 1.19109e-09 0 
0 0 0 0 0 6.85033e-10 0 0 1.16334e-09 
3.24774e-09 0 0 0 0 0 0 0 0 
0 0 0 0 0 0 0 0 0 
0 0 0 0 0 0 0 0 0 
0 0 0 0 0 5.34523e-09 0 0 7.82599e-09 
8.7906e-07 0 0 1.27082e-09 0 0 0 0 0 
0 0 2.6682e-10 0 0 0 2.14414e-09 0 0 
0 0 0 0 0 0 0 0 0 
0 0 0 0 0 0 5.75859e-09 7.38346e-07 0 
0 4.04265e-09 0 0 0 0 0 0 0 
0 8.75175e-10 0 0 0 0 0 0 6.65059e-07 
0 0 0 0 2.54001e-09 9.88284e-10 0 0 0 
0 0 0 0 0 0 0 0 0 
0 0 0 0 0 0 0 0 0 
0 0 0 0 0 0 0 0 0 
0 0 0 0 0 0 0 0 4.13507e-09 
0 8.68353e-07 0 0 0 0 0 0 0 
1.00861e-09 0 3.44333e-10 0 0 0 1.14523e-09 0 0 
0 0 0 0 0 0 8.66469e-10 0 0 
0 1.59737e-09 0 0 0 7.4455e-07 0 0 3.65038e-09 
0 0 0 0 0 0 0 0 0 
0 0 0 0 0 0 0 0 0 
0 0 1.91223e-09 0 0 0 0 0 0 
0 6.33257e-10 0 0 0 0 0 0 0 
0 0 0 0 0 0 0 0 0 
0 0 0 0 0 0 0 0 0 
0 0 0 0 0 0 8.74746e-10 0 0 
0 0 1.76007e-08 0 0 0 0 0 0 
0 2.33872e-10 0 0 0 0 0 0 0 
0 0 0 0 0 1.12167e-09 0 0 0 
4.04375e-09 7.13853e-07 0 0 0 0 8.14597e-09 0 0 
0 0 0 0 8.69283e-07 0 0 0 0 
0 0 0 0 0 0 0 0 0 
1.34088e-09 0 0 0 0 2.21592e-09 2.50828e-09 0 8.21289e-10 
1.13626e-09 0 0 0 0 0 0 0 0 
0 0 0 0 0 0 0 0 0 
0 0 0 0 0 0 0 0 0 
0 0 0 0 0 0 0 0 0 
0 0 2.17187e-09 0 0 2.10303e-10 6.57604e-10 0 0 
0 0 0 0 0 0 0 0 0 
0 0 0 0 0 3.17584e-09 6.49179e-07 5.9336e-09 0 
0 4.22973e-09 1.78685e-09 0 9.24424e-10 0 0 1.77271e-09 0 
0 0 0 0 2.67564e-09 8.65011e-07 0 0 0 
0 0 0 0 0 0 0 0 0 
0 0 0 0 0 0 0 0 2.42248e-09 
0 0 0 0 0 0 0 0 0 
0 0 0 0 0 0 0 0 0 
0 0 0 0 0 0 0 0 0 
0 0 0 0 0 0 0 0 0 
0 0 6.50639e-10 0 0 0 0 0 0 
0 0 0 0 0 0 0 0 0 
0 0 0 0 0 0 0 3.02792e-09 0 
0 0 0 1.7594e-09 0 0 0 0 0 
0 0 0 0 0 0 0 0 0 
0 0 0 0 0 8.00977e-10 0 0 0 
0 0 0 0 0 9.30214e-10 1.16084e-09 0 6.54609e-07 
0 1.59117e-09 0 0 0 0 0 0 0 
0 0 0 0 0 0 0 0 0 
0 0 0 0 0 0 0 0 0 
0 0 0 0 0 0 0 0 6.45924e-07 
0 0 1.20676e-09 0 2.34348e-09 3.25121e-09 2.42505e-10 4.71033e-10 0 
8.63371e-10 0 0 4.80535e-10 0 0 0 0 0 
0 0 0 0 0 0 0 0 5.48639e-10 
0 0 0 0 7.54854e-10 0 0 7.31552e-10 0 
0 0 0 0 0 1.72525e-09 0 5.1074e-09 0 
0 0 0 0 4.1751e-09 0 0 0 0 
0 0 0 0 0 0 0 0 0 
2.14076e-09 0 0 0 0 0 0 0 0 
0 0 0 0 0 0 0 0 0 
0 0 0 0 0 0 0 0 0 
0 0 0 0 0 0 6.14448e-10 0 0 
1.75187e-09 0 0 7.81797e-10 0 0 0 0 0 
0 0 0 0 0 0 0 0 0 
0 0 0 0 0 0 0 0 1.28675e-09 
1.06729e-09 0 0 0 0 0 0 0 0 
0 0 0 0 0 0 0 0 0 
0 0 2.94074e-09 0 0 6.85494e-07 0 3.22294e-09 0 
0 0 0 0 0 0 0 0 0 
0 0 0 0 0 0 0 1.10873e-09 0 
0 0 0 0 0 0 0 0 0 
0 0 0 0 0 0 0 0 0 
0 0 0 0 0 0 0 0 0 
0 0 0 1.15122e-09 0 0 0 0 6.61583e-07 
0 0 0 1.95931e-09 0 0 0 0 0 
0 0 1.70903e-10 5.40229e-10 0 0 0 0 0 
0 0 0 0 0 0 0 0 0 
0 0 0 0 0 0 0 0 0 
0 0 0 6.29228e-10 0 8.8573e-10 0 0 3.61655e-09 
0 0 0 0 0 0 0 0 0 
1.11922e-09 0 0 0 0 1.81537e-09 0 0 0 
0 0 0 7.46433e-10 0 0 0 0 0 
0 0 0 0 0 0 0 0 0 
0 0 0 0 0 0 0 0 0 
0 7.80503e-10 0 0 0 0 0 0 0 
0 0 4.37412e-09 0 6.75815e-07 0 0 1.8132e-09 5.64299e-10 
0 0 0 0 0 0 0 0 0 
0 0 2.78652e-10 3.7139e-10 0 0 0 0 0 
0 0 0 0 0 0 0 0 0 
0 0 0 0 5.17198e-09 6.8205e-07 6.71456e-09 0 0 
0 0 0 0 0 0 0 0 0 
0 0 0 0 6.54693e-07 0 0 0 0 
0 2.07556e-09 0 0 0 0 0 0 0 
0 0 0 0 0 0 0 0 0 
0 0 0 0 0 0 0 0 0 
0 0 0 0 0 4.65168e-10 0 0 0 
0 0 0 0 0 0 0 0 0 
0 0 0 9.18901e-10 0 0 0 0 0 
0 0 0 0 0 0 0 6.47512e-07 0 
0 0 0 7.91157e-11 0 0 0 5.51719e-10 0 
6.49099e-07 4.20386e-09 0 0 0 0 0 0 0 
1.57301e-08 6.6544e-07 0 0 0 0 0 0 0 
0 0 1.01214e-09 0 0 0 0 0 0 
0 0 8.60163e-07 0 0 0 0 0 0 
0 0 0 0 0 0 0 0 0 
0 0 0 0 0 0 0 0 0 
0 0 0 0 0 0 0 0 0 
0 0 0 0 0 0 0 0 3.73933e-10 
0 0 0 0 0 0 6.73336e-07 0 3.41701e-09 
0 0 0 0 0 0 2.2032e-09 7.52111e-10 0 
0 1.37234e-09 0 0 0 0 0 0 0 
0 0 1.93769e-09 0 0 0 3.24024e-09 0 0 
0 1.70865e-10 0 2.49651e-09 0 0 0 0 0 
0 0 0 0 3.45376e-10 0 0 0 1.17734e-09 
0 2.42923e-09 0 8.59863e-07 5.35953e-09 0 5.65353e-10 0 0 
0 0 0 0 0 0 0 0 0 
0 0 0 0 0 0 0 0 0 
0 0 0 0 0 0 0 0 0 
0 2.22244e-09 0 0 0 0 6.98475e-07 2.50836e-09 2.29751e-09 
0 2.58161e-09 0 0 0 0 0 0 0 
0 0 0 8.18235e-07 9.35885e-10 1.44369e-09 0 2.11669e-09 0 
0 0 4.70362e-10 0 0 0 0 0 0 
2.67967e-09 0 0 0 0 0 0 0 0 
0 0 0 4.15437e-10 0 0 0 0 0 
0 0 0 0 0 0 2.12242e-09 0 0 
0 0 0 0 0 0 1.30844e-09 0 0 
0 0 0 0 0 0 0 0 0 
0 0 0 0 0 0 0 0 0 
0 0 0 3.20326e-10 0 0 3.10662e-09 1.28568e-09 4.68751e-09 
0 1.26791e-09 0 2.5391e-09 8.15843e-07 0 0 0 0 
0 0 0 0 0 0 0 0 0 
0 0 7.39461e-07 0 2.61384e-09 7.91318e-07 1.01612e-08 0 0 
0 0 0 0 0 0 0 0 0 
1.63483e-10 0 0 0 0 0 5.21619e-10 0 0 
0 6.92421e-10 0 0 0 0 0 0 0 
0 0 0 0 0 0 0 3.48292e-10 0 
0 0 8.74307e-10 0 0 0 0 2.59944e-09 0 
0 0 0 0 0 0 0 0 0 
0 0 0 0 0 0 0 0 0 
0 0 0 0 0 0 0 6.49517e-07 0 
0 0 0 0 8.87117e-07 3.73222e-09 0 0 4.53134e-10 
0 0 0 0 0 0 0 6.62597e-07 0 
0 0 0 7.0978e-09 0 0 0 0 3.75339e-09 
0 0 0 0 0 0 0 0 0 
0 0 0 0 7.5416e-10 0 0 0 0 
0 0 0 0 0 0 0 0 0 
0 0 0 0 0 0 0 0 0 
0 0 0 0 0 0 0 0 0 
0 0 0 0 0 0 0 0 0 
0 0 0 0 0 0 0 0 0 
0 0 0 0 0 6.07406e-10 0 6.67209e-10 4.72452e-09 
3.73718e-09 0 0 0 7.93951e-07 0 0 2.99469e-09 1.24913e-09 
1.87329e-09 3.01967e-09 2.01088e-09 3.87728e-09 0 0 0 0 0 
0 1.06543e-09 3.42597e-10 0 7.25977e-10 0 0 0 0 
0 0 0 0 0 0 0 0 0 
0 0 6.98383e-07 6.65264e-10 0 0 0 0 0 
0 0 0 0 0 0 0 0 0 
0 0 0 0 0 0 0 0 0 
0 0 0 0 0 0 0 0 0 
0 0 0 0 0 0 0 0 0 
0 0 0 0 0 0 0 0 0 
0 0 0 0 0 0 0 0 0 
0 0 0 0 3.50856e-09 0 0 5.67263e-09 0 
0 0 0 0 6.50688e-07 1.75272e-09 0 0 0 
0 0 0 9.09089e-10 0 0 0 0 7.30058e-10 
1.36339e-09 0 0 0 0 0 0 0 0 
0 5.38624e-10 8.265e-10 6.86934e-09 7.97415e-09 6.98231e-07 0 0 0 
0 0 0 0 0 0 0 0 0 
0 0 0 0 0 0 0 0 0 
0 0 0 0 0 0 0 0 0 
0 0 0 0 0 0 0 0 0 
0 0 0 0 0 0 0 0 0 
0 0 0 0 0 0 0 0 1.56208e-10 
0 0 0 3.20606e-10 0 0 0 0 0 
1.11458e-09 0 0 0 0 0 0 1.14059e-09 0 
0 0 0 0 0 0 0 0 0 
0 0 0 0 0 0 0 0 0 
0 0 0 0 0 0 8.79329e-09 0 1.70784e-09 
0 0 0 0 0 0 0 0 0 
0 0 0 0 0 0 0 0 0 
0 0 0 0 0 0 0 0 0 
0 0 0 0 0 0 0 0 0 
0 0 0 0 0 0 0 0 0 
0 0 0 0 0 0 0 0 0 
0 0 0 0 0 0 0 0 0 
0 0 0 0 3.76881e-10 0 0 0 0 
0 0 0 0 0 0 1.35268e-10 0 0 
0 0 0 0 0 0 0 0 0 
0 0 0 0 0 0 0 0 2.10944e-09 
1.09704e-09 0 0 0 0 0 0 0 0 
0 0 0 0 0 0 0 0 0 
0 0 0 0 0 0 0 0 0 
0 0 0 0 0 0 0 0 0 
0 0 0 0 0 0 0 0 0 
0 0 0 0 0 0 0 0 0 
0 0 0 0 0 0 0 0 0 
0 0 2.953e-10 0 0 0 0 0 0 
0 0 0 0 0 0 0 0 0 
0 0 0 0 0 0 0 0 0 
0 0 0 0 0 0 0 0 4.8557e-10 
0 0 0 0 0 0 0 0 0 
0 0 0 0 0 0 0 0 0 
0 0 0 0 0 0 0 0 0 
0 0 0 0 0 0 0 0 0 
0 0 0 0 0 0 0 0 0 
0 0 0 0 0 0 0 0 0 
0 0 0 0 0 0 0 0 0 
0 0 0 0 0 0 0 0 0 
3.10298e-10 0 0 0 0 0 0 0 0 
0 0 0 0 0 0 0 0 0 
0 0 0 0 0 0 0 0 0 
5.73931e-10 0 0 0 0 0 0 0 0 
0 0 0 0 0 0 0 0 0 
0 0 0 0 0 0 0 0 0 